V -t * -v 1.0a5 -a 0
A -t * -n 1 -p 0 -o 0x7fffffff -c 30 -a 1
A -t * -h 1 -m 1073741823 -s 0
c -t * -i 1 -n Blue
c -t * -i 2 -n Red
n -t * -a 4 -s 4 -S UP -v circle -c black -i black
n -t * -a 0 -s 0 -S UP -v circle -c Blue -i Blue
n -t * -a 5 -s 5 -S UP -v circle -c black -i black
n -t * -a 1 -s 1 -S UP -v circle -c Red -i Red
n -t * -a 2 -s 2 -S UP -v circle -c black -i black
n -t * -a 3 -s 3 -S UP -v circle -c black -i black
l -t * -s 0 -d 2 -S UP -r 1000000 -D 0.050000000000000003 -c black -o right-down
l -t * -s 1 -d 2 -S UP -r 1000000 -D 0.050000000000000003 -c black -o right-up
l -t * -s 2 -d 3 -S UP -r 500000 -D 0.029999999999999999 -c black -o right
l -t * -s 3 -d 4 -S UP -r 1000000 -D 0.050000000000000003 -c black -o right-up
l -t * -s 3 -d 5 -S UP -r 1000000 -D 0.050000000000000003 -c black -o right-down
+ -t 0.2 -s 1 -d 2 -p cbr -e 1000 -c 2 -i 0 -a 2 -x {1.0 5.0 0 ------- null}
- -t 0.2 -s 1 -d 2 -p cbr -e 1000 -c 2 -i 0 -a 2 -x {1.0 5.0 0 ------- null}
h -t 0.2 -s 1 -d 2 -p cbr -e 1000 -c 2 -i 0 -a 2 -x {1.0 5.0 -1 ------- null}
+ -t 0.2 -s 1 -d 2 -p cbr -e 460 -c 2 -i 1 -a 2 -x {1.0 5.0 1 ------- null}
- -t 0.208 -s 1 -d 2 -p cbr -e 460 -c 2 -i 1 -a 2 -x {1.0 5.0 1 ------- null}
h -t 0.208 -s 1 -d 2 -p cbr -e 460 -c 2 -i 1 -a 2 -x {1.0 5.0 -1 ------- null}
r -t 0.258 -s 1 -d 2 -p cbr -e 1000 -c 2 -i 0 -a 2 -x {1.0 5.0 0 ------- null}
+ -t 0.258 -s 2 -d 3 -p cbr -e 1000 -c 2 -i 0 -a 2 -x {1.0 5.0 0 ------- null}
- -t 0.258 -s 2 -d 3 -p cbr -e 1000 -c 2 -i 0 -a 2 -x {1.0 5.0 0 ------- null}
h -t 0.258 -s 2 -d 3 -p cbr -e 1000 -c 2 -i 0 -a 2 -x {1.0 5.0 -1 ------- null}
r -t 0.26168 -s 1 -d 2 -p cbr -e 460 -c 2 -i 1 -a 2 -x {1.0 5.0 1 ------- null}
+ -t 0.26168 -s 2 -d 3 -p cbr -e 460 -c 2 -i 1 -a 2 -x {1.0 5.0 1 ------- null}
- -t 0.274 -s 2 -d 3 -p cbr -e 460 -c 2 -i 1 -a 2 -x {1.0 5.0 1 ------- null}
h -t 0.274 -s 2 -d 3 -p cbr -e 460 -c 2 -i 1 -a 2 -x {1.0 5.0 -1 ------- null}
r -t 0.304 -s 2 -d 3 -p cbr -e 1000 -c 2 -i 0 -a 2 -x {1.0 5.0 0 ------- null}
+ -t 0.304 -s 3 -d 5 -p cbr -e 1000 -c 2 -i 0 -a 2 -x {1.0 5.0 0 ------- null}
- -t 0.304 -s 3 -d 5 -p cbr -e 1000 -c 2 -i 0 -a 2 -x {1.0 5.0 0 ------- null}
h -t 0.304 -s 3 -d 5 -p cbr -e 1000 -c 2 -i 0 -a 2 -x {1.0 5.0 -1 ------- null}
r -t 0.31136 -s 2 -d 3 -p cbr -e 460 -c 2 -i 1 -a 2 -x {1.0 5.0 1 ------- null}
+ -t 0.31136 -s 3 -d 5 -p cbr -e 460 -c 2 -i 1 -a 2 -x {1.0 5.0 1 ------- null}
- -t 0.312 -s 3 -d 5 -p cbr -e 460 -c 2 -i 1 -a 2 -x {1.0 5.0 1 ------- null}
h -t 0.312 -s 3 -d 5 -p cbr -e 460 -c 2 -i 1 -a 2 -x {1.0 5.0 -1 ------- null}
r -t 0.362 -s 3 -d 5 -p cbr -e 1000 -c 2 -i 0 -a 2 -x {1.0 5.0 0 ------- null}
r -t 0.36568 -s 3 -d 5 -p cbr -e 460 -c 2 -i 1 -a 2 -x {1.0 5.0 1 ------- null}
+ -t 1 -s 0 -d 2 -p tcp -e 40 -c 1 -i 2 -a 1 -x {0.0 4.0 0 ------- null}
- -t 1 -s 0 -d 2 -p tcp -e 40 -c 1 -i 2 -a 1 -x {0.0 4.0 0 ------- null}
h -t 1 -s 0 -d 2 -p tcp -e 40 -c 1 -i 2 -a 1 -x {0.0 4.0 -1 ------- null}
r -t 1.05032 -s 0 -d 2 -p tcp -e 40 -c 1 -i 2 -a 1 -x {0.0 4.0 0 ------- null}
+ -t 1.05032 -s 2 -d 3 -p tcp -e 40 -c 1 -i 2 -a 1 -x {0.0 4.0 0 ------- null}
- -t 1.05032 -s 2 -d 3 -p tcp -e 40 -c 1 -i 2 -a 1 -x {0.0 4.0 0 ------- null}
h -t 1.05032 -s 2 -d 3 -p tcp -e 40 -c 1 -i 2 -a 1 -x {0.0 4.0 -1 ------- null}
r -t 1.08096 -s 2 -d 3 -p tcp -e 40 -c 1 -i 2 -a 1 -x {0.0 4.0 0 ------- null}
+ -t 1.08096 -s 3 -d 4 -p tcp -e 40 -c 1 -i 2 -a 1 -x {0.0 4.0 0 ------- null}
- -t 1.08096 -s 3 -d 4 -p tcp -e 40 -c 1 -i 2 -a 1 -x {0.0 4.0 0 ------- null}
h -t 1.08096 -s 3 -d 4 -p tcp -e 40 -c 1 -i 2 -a 1 -x {0.0 4.0 -1 ------- null}
r -t 1.13128 -s 3 -d 4 -p tcp -e 40 -c 1 -i 2 -a 1 -x {0.0 4.0 0 ------- null}
+ -t 1.13128 -s 4 -d 3 -p ack -e 40 -c 1 -i 3 -a 1 -x {4.0 0.0 0 ------- null}
- -t 1.13128 -s 4 -d 3 -p ack -e 40 -c 1 -i 3 -a 1 -x {4.0 0.0 0 ------- null}
h -t 1.13128 -s 4 -d 3 -p ack -e 40 -c 1 -i 3 -a 1 -x {4.0 0.0 -1 ------- null}
r -t 1.1816 -s 4 -d 3 -p ack -e 40 -c 1 -i 3 -a 1 -x {4.0 0.0 0 ------- null}
+ -t 1.1816 -s 3 -d 2 -p ack -e 40 -c 1 -i 3 -a 1 -x {4.0 0.0 0 ------- null}
- -t 1.1816 -s 3 -d 2 -p ack -e 40 -c 1 -i 3 -a 1 -x {4.0 0.0 0 ------- null}
h -t 1.1816 -s 3 -d 2 -p ack -e 40 -c 1 -i 3 -a 1 -x {4.0 0.0 -1 ------- null}
r -t 1.21224 -s 3 -d 2 -p ack -e 40 -c 1 -i 3 -a 1 -x {4.0 0.0 0 ------- null}
+ -t 1.21224 -s 2 -d 0 -p ack -e 40 -c 1 -i 3 -a 1 -x {4.0 0.0 0 ------- null}
- -t 1.21224 -s 2 -d 0 -p ack -e 40 -c 1 -i 3 -a 1 -x {4.0 0.0 0 ------- null}
h -t 1.21224 -s 2 -d 0 -p ack -e 40 -c 1 -i 3 -a 1 -x {4.0 0.0 -1 ------- null}
r -t 1.26256 -s 2 -d 0 -p ack -e 40 -c 1 -i 3 -a 1 -x {4.0 0.0 0 ------- null}
+ -t 1.26256 -s 0 -d 2 -p tcp -e 1040 -c 1 -i 4 -a 1 -x {0.0 4.0 1 ------- null}
- -t 1.26256 -s 0 -d 2 -p tcp -e 1040 -c 1 -i 4 -a 1 -x {0.0 4.0 1 ------- null}
h -t 1.26256 -s 0 -d 2 -p tcp -e 1040 -c 1 -i 4 -a 1 -x {0.0 4.0 -1 ------- null}
+ -t 1.26256 -s 0 -d 2 -p tcp -e 1040 -c 1 -i 5 -a 1 -x {0.0 4.0 2 ------- null}
- -t 1.27088 -s 0 -d 2 -p tcp -e 1040 -c 1 -i 5 -a 1 -x {0.0 4.0 2 ------- null}
h -t 1.27088 -s 0 -d 2 -p tcp -e 1040 -c 1 -i 5 -a 1 -x {0.0 4.0 -1 ------- null}
r -t 1.32088 -s 0 -d 2 -p tcp -e 1040 -c 1 -i 4 -a 1 -x {0.0 4.0 1 ------- null}
+ -t 1.32088 -s 2 -d 3 -p tcp -e 1040 -c 1 -i 4 -a 1 -x {0.0 4.0 1 ------- null}
- -t 1.32088 -s 2 -d 3 -p tcp -e 1040 -c 1 -i 4 -a 1 -x {0.0 4.0 1 ------- null}
h -t 1.32088 -s 2 -d 3 -p tcp -e 1040 -c 1 -i 4 -a 1 -x {0.0 4.0 -1 ------- null}
r -t 1.3292 -s 0 -d 2 -p tcp -e 1040 -c 1 -i 5 -a 1 -x {0.0 4.0 2 ------- null}
+ -t 1.3292 -s 2 -d 3 -p tcp -e 1040 -c 1 -i 5 -a 1 -x {0.0 4.0 2 ------- null}
- -t 1.33752 -s 2 -d 3 -p tcp -e 1040 -c 1 -i 5 -a 1 -x {0.0 4.0 2 ------- null}
h -t 1.33752 -s 2 -d 3 -p tcp -e 1040 -c 1 -i 5 -a 1 -x {0.0 4.0 -1 ------- null}
r -t 1.36752 -s 2 -d 3 -p tcp -e 1040 -c 1 -i 4 -a 1 -x {0.0 4.0 1 ------- null}
+ -t 1.36752 -s 3 -d 4 -p tcp -e 1040 -c 1 -i 4 -a 1 -x {0.0 4.0 1 ------- null}
- -t 1.36752 -s 3 -d 4 -p tcp -e 1040 -c 1 -i 4 -a 1 -x {0.0 4.0 1 ------- null}
h -t 1.36752 -s 3 -d 4 -p tcp -e 1040 -c 1 -i 4 -a 1 -x {0.0 4.0 -1 ------- null}
+ -t 1.368 -s 1 -d 2 -p cbr -e 1000 -c 2 -i 6 -a 2 -x {1.0 5.0 2 ------- null}
- -t 1.368 -s 1 -d 2 -p cbr -e 1000 -c 2 -i 6 -a 2 -x {1.0 5.0 2 ------- null}
h -t 1.368 -s 1 -d 2 -p cbr -e 1000 -c 2 -i 6 -a 2 -x {1.0 5.0 -1 ------- null}
+ -t 1.368 -s 1 -d 2 -p cbr -e 460 -c 2 -i 7 -a 2 -x {1.0 5.0 3 ------- null}
- -t 1.376 -s 1 -d 2 -p cbr -e 460 -c 2 -i 7 -a 2 -x {1.0 5.0 3 ------- null}
h -t 1.376 -s 1 -d 2 -p cbr -e 460 -c 2 -i 7 -a 2 -x {1.0 5.0 -1 ------- null}
r -t 1.38416 -s 2 -d 3 -p tcp -e 1040 -c 1 -i 5 -a 1 -x {0.0 4.0 2 ------- null}
+ -t 1.38416 -s 3 -d 4 -p tcp -e 1040 -c 1 -i 5 -a 1 -x {0.0 4.0 2 ------- null}
- -t 1.38416 -s 3 -d 4 -p tcp -e 1040 -c 1 -i 5 -a 1 -x {0.0 4.0 2 ------- null}
h -t 1.38416 -s 3 -d 4 -p tcp -e 1040 -c 1 -i 5 -a 1 -x {0.0 4.0 -1 ------- null}
r -t 1.42584 -s 3 -d 4 -p tcp -e 1040 -c 1 -i 4 -a 1 -x {0.0 4.0 1 ------- null}
+ -t 1.42584 -s 4 -d 3 -p ack -e 40 -c 1 -i 8 -a 1 -x {4.0 0.0 1 ------- null}
- -t 1.42584 -s 4 -d 3 -p ack -e 40 -c 1 -i 8 -a 1 -x {4.0 0.0 1 ------- null}
h -t 1.42584 -s 4 -d 3 -p ack -e 40 -c 1 -i 8 -a 1 -x {4.0 0.0 -1 ------- null}
r -t 1.426 -s 1 -d 2 -p cbr -e 1000 -c 2 -i 6 -a 2 -x {1.0 5.0 2 ------- null}
+ -t 1.426 -s 2 -d 3 -p cbr -e 1000 -c 2 -i 6 -a 2 -x {1.0 5.0 2 ------- null}
- -t 1.426 -s 2 -d 3 -p cbr -e 1000 -c 2 -i 6 -a 2 -x {1.0 5.0 2 ------- null}
h -t 1.426 -s 2 -d 3 -p cbr -e 1000 -c 2 -i 6 -a 2 -x {1.0 5.0 -1 ------- null}
r -t 1.42968 -s 1 -d 2 -p cbr -e 460 -c 2 -i 7 -a 2 -x {1.0 5.0 3 ------- null}
+ -t 1.42968 -s 2 -d 3 -p cbr -e 460 -c 2 -i 7 -a 2 -x {1.0 5.0 3 ------- null}
- -t 1.442 -s 2 -d 3 -p cbr -e 460 -c 2 -i 7 -a 2 -x {1.0 5.0 3 ------- null}
h -t 1.442 -s 2 -d 3 -p cbr -e 460 -c 2 -i 7 -a 2 -x {1.0 5.0 -1 ------- null}
r -t 1.44248 -s 3 -d 4 -p tcp -e 1040 -c 1 -i 5 -a 1 -x {0.0 4.0 2 ------- null}
+ -t 1.44248 -s 4 -d 3 -p ack -e 40 -c 1 -i 9 -a 1 -x {4.0 0.0 2 ------- null}
- -t 1.44248 -s 4 -d 3 -p ack -e 40 -c 1 -i 9 -a 1 -x {4.0 0.0 2 ------- null}
h -t 1.44248 -s 4 -d 3 -p ack -e 40 -c 1 -i 9 -a 1 -x {4.0 0.0 -1 ------- null}
r -t 1.472 -s 2 -d 3 -p cbr -e 1000 -c 2 -i 6 -a 2 -x {1.0 5.0 2 ------- null}
+ -t 1.472 -s 3 -d 5 -p cbr -e 1000 -c 2 -i 6 -a 2 -x {1.0 5.0 2 ------- null}
- -t 1.472 -s 3 -d 5 -p cbr -e 1000 -c 2 -i 6 -a 2 -x {1.0 5.0 2 ------- null}
h -t 1.472 -s 3 -d 5 -p cbr -e 1000 -c 2 -i 6 -a 2 -x {1.0 5.0 -1 ------- null}
r -t 1.47616 -s 4 -d 3 -p ack -e 40 -c 1 -i 8 -a 1 -x {4.0 0.0 1 ------- null}
+ -t 1.47616 -s 3 -d 2 -p ack -e 40 -c 1 -i 8 -a 1 -x {4.0 0.0 1 ------- null}
- -t 1.47616 -s 3 -d 2 -p ack -e 40 -c 1 -i 8 -a 1 -x {4.0 0.0 1 ------- null}
h -t 1.47616 -s 3 -d 2 -p ack -e 40 -c 1 -i 8 -a 1 -x {4.0 0.0 -1 ------- null}
r -t 1.47936 -s 2 -d 3 -p cbr -e 460 -c 2 -i 7 -a 2 -x {1.0 5.0 3 ------- null}
+ -t 1.47936 -s 3 -d 5 -p cbr -e 460 -c 2 -i 7 -a 2 -x {1.0 5.0 3 ------- null}
- -t 1.48 -s 3 -d 5 -p cbr -e 460 -c 2 -i 7 -a 2 -x {1.0 5.0 3 ------- null}
h -t 1.48 -s 3 -d 5 -p cbr -e 460 -c 2 -i 7 -a 2 -x {1.0 5.0 -1 ------- null}
r -t 1.4928 -s 4 -d 3 -p ack -e 40 -c 1 -i 9 -a 1 -x {4.0 0.0 2 ------- null}
+ -t 1.4928 -s 3 -d 2 -p ack -e 40 -c 1 -i 9 -a 1 -x {4.0 0.0 2 ------- null}
- -t 1.4928 -s 3 -d 2 -p ack -e 40 -c 1 -i 9 -a 1 -x {4.0 0.0 2 ------- null}
h -t 1.4928 -s 3 -d 2 -p ack -e 40 -c 1 -i 9 -a 1 -x {4.0 0.0 -1 ------- null}
r -t 1.5068 -s 3 -d 2 -p ack -e 40 -c 1 -i 8 -a 1 -x {4.0 0.0 1 ------- null}
+ -t 1.5068 -s 2 -d 0 -p ack -e 40 -c 1 -i 8 -a 1 -x {4.0 0.0 1 ------- null}
- -t 1.5068 -s 2 -d 0 -p ack -e 40 -c 1 -i 8 -a 1 -x {4.0 0.0 1 ------- null}
h -t 1.5068 -s 2 -d 0 -p ack -e 40 -c 1 -i 8 -a 1 -x {4.0 0.0 -1 ------- null}
r -t 1.52344 -s 3 -d 2 -p ack -e 40 -c 1 -i 9 -a 1 -x {4.0 0.0 2 ------- null}
+ -t 1.52344 -s 2 -d 0 -p ack -e 40 -c 1 -i 9 -a 1 -x {4.0 0.0 2 ------- null}
- -t 1.52344 -s 2 -d 0 -p ack -e 40 -c 1 -i 9 -a 1 -x {4.0 0.0 2 ------- null}
h -t 1.52344 -s 2 -d 0 -p ack -e 40 -c 1 -i 9 -a 1 -x {4.0 0.0 -1 ------- null}
r -t 1.53 -s 3 -d 5 -p cbr -e 1000 -c 2 -i 6 -a 2 -x {1.0 5.0 2 ------- null}
r -t 1.53368 -s 3 -d 5 -p cbr -e 460 -c 2 -i 7 -a 2 -x {1.0 5.0 3 ------- null}
r -t 1.55712 -s 2 -d 0 -p ack -e 40 -c 1 -i 8 -a 1 -x {4.0 0.0 1 ------- null}
+ -t 1.55712 -s 0 -d 2 -p tcp -e 1040 -c 1 -i 10 -a 1 -x {0.0 4.0 3 ------- null}
- -t 1.55712 -s 0 -d 2 -p tcp -e 1040 -c 1 -i 10 -a 1 -x {0.0 4.0 3 ------- null}
h -t 1.55712 -s 0 -d 2 -p tcp -e 1040 -c 1 -i 10 -a 1 -x {0.0 4.0 -1 ------- null}
+ -t 1.55712 -s 0 -d 2 -p tcp -e 1040 -c 1 -i 11 -a 1 -x {0.0 4.0 4 ------- null}
- -t 1.56544 -s 0 -d 2 -p tcp -e 1040 -c 1 -i 11 -a 1 -x {0.0 4.0 4 ------- null}
h -t 1.56544 -s 0 -d 2 -p tcp -e 1040 -c 1 -i 11 -a 1 -x {0.0 4.0 -1 ------- null}
r -t 1.57376 -s 2 -d 0 -p ack -e 40 -c 1 -i 9 -a 1 -x {4.0 0.0 2 ------- null}
+ -t 1.57376 -s 0 -d 2 -p tcp -e 1040 -c 1 -i 12 -a 1 -x {0.0 4.0 5 ------- null}
+ -t 1.57376 -s 0 -d 2 -p tcp -e 1040 -c 1 -i 13 -a 1 -x {0.0 4.0 6 ------- null}
- -t 1.57376 -s 0 -d 2 -p tcp -e 1040 -c 1 -i 12 -a 1 -x {0.0 4.0 5 ------- null}
h -t 1.57376 -s 0 -d 2 -p tcp -e 1040 -c 1 -i 12 -a 1 -x {0.0 4.0 -1 ------- null}
- -t 1.58208 -s 0 -d 2 -p tcp -e 1040 -c 1 -i 13 -a 1 -x {0.0 4.0 6 ------- null}
h -t 1.58208 -s 0 -d 2 -p tcp -e 1040 -c 1 -i 13 -a 1 -x {0.0 4.0 -1 ------- null}
r -t 1.61544 -s 0 -d 2 -p tcp -e 1040 -c 1 -i 10 -a 1 -x {0.0 4.0 3 ------- null}
+ -t 1.61544 -s 2 -d 3 -p tcp -e 1040 -c 1 -i 10 -a 1 -x {0.0 4.0 3 ------- null}
- -t 1.61544 -s 2 -d 3 -p tcp -e 1040 -c 1 -i 10 -a 1 -x {0.0 4.0 3 ------- null}
h -t 1.61544 -s 2 -d 3 -p tcp -e 1040 -c 1 -i 10 -a 1 -x {0.0 4.0 -1 ------- null}
r -t 1.62376 -s 0 -d 2 -p tcp -e 1040 -c 1 -i 11 -a 1 -x {0.0 4.0 4 ------- null}
+ -t 1.62376 -s 2 -d 3 -p tcp -e 1040 -c 1 -i 11 -a 1 -x {0.0 4.0 4 ------- null}
- -t 1.63208 -s 2 -d 3 -p tcp -e 1040 -c 1 -i 11 -a 1 -x {0.0 4.0 4 ------- null}
h -t 1.63208 -s 2 -d 3 -p tcp -e 1040 -c 1 -i 11 -a 1 -x {0.0 4.0 -1 ------- null}
r -t 1.63208 -s 0 -d 2 -p tcp -e 1040 -c 1 -i 12 -a 1 -x {0.0 4.0 5 ------- null}
+ -t 1.63208 -s 2 -d 3 -p tcp -e 1040 -c 1 -i 12 -a 1 -x {0.0 4.0 5 ------- null}
r -t 1.6404 -s 0 -d 2 -p tcp -e 1040 -c 1 -i 13 -a 1 -x {0.0 4.0 6 ------- null}
+ -t 1.6404 -s 2 -d 3 -p tcp -e 1040 -c 1 -i 13 -a 1 -x {0.0 4.0 6 ------- null}
- -t 1.64872 -s 2 -d 3 -p tcp -e 1040 -c 1 -i 12 -a 1 -x {0.0 4.0 5 ------- null}
h -t 1.64872 -s 2 -d 3 -p tcp -e 1040 -c 1 -i 12 -a 1 -x {0.0 4.0 -1 ------- null}
r -t 1.66208 -s 2 -d 3 -p tcp -e 1040 -c 1 -i 10 -a 1 -x {0.0 4.0 3 ------- null}
+ -t 1.66208 -s 3 -d 4 -p tcp -e 1040 -c 1 -i 10 -a 1 -x {0.0 4.0 3 ------- null}
- -t 1.66208 -s 3 -d 4 -p tcp -e 1040 -c 1 -i 10 -a 1 -x {0.0 4.0 3 ------- null}
h -t 1.66208 -s 3 -d 4 -p tcp -e 1040 -c 1 -i 10 -a 1 -x {0.0 4.0 -1 ------- null}
- -t 1.66536 -s 2 -d 3 -p tcp -e 1040 -c 1 -i 13 -a 1 -x {0.0 4.0 6 ------- null}
h -t 1.66536 -s 2 -d 3 -p tcp -e 1040 -c 1 -i 13 -a 1 -x {0.0 4.0 -1 ------- null}
r -t 1.67872 -s 2 -d 3 -p tcp -e 1040 -c 1 -i 11 -a 1 -x {0.0 4.0 4 ------- null}
+ -t 1.67872 -s 3 -d 4 -p tcp -e 1040 -c 1 -i 11 -a 1 -x {0.0 4.0 4 ------- null}
- -t 1.67872 -s 3 -d 4 -p tcp -e 1040 -c 1 -i 11 -a 1 -x {0.0 4.0 4 ------- null}
h -t 1.67872 -s 3 -d 4 -p tcp -e 1040 -c 1 -i 11 -a 1 -x {0.0 4.0 -1 ------- null}
r -t 1.69536 -s 2 -d 3 -p tcp -e 1040 -c 1 -i 12 -a 1 -x {0.0 4.0 5 ------- null}
+ -t 1.69536 -s 3 -d 4 -p tcp -e 1040 -c 1 -i 12 -a 1 -x {0.0 4.0 5 ------- null}
- -t 1.69536 -s 3 -d 4 -p tcp -e 1040 -c 1 -i 12 -a 1 -x {0.0 4.0 5 ------- null}
h -t 1.69536 -s 3 -d 4 -p tcp -e 1040 -c 1 -i 12 -a 1 -x {0.0 4.0 -1 ------- null}
r -t 1.712 -s 2 -d 3 -p tcp -e 1040 -c 1 -i 13 -a 1 -x {0.0 4.0 6 ------- null}
+ -t 1.712 -s 3 -d 4 -p tcp -e 1040 -c 1 -i 13 -a 1 -x {0.0 4.0 6 ------- null}
- -t 1.712 -s 3 -d 4 -p tcp -e 1040 -c 1 -i 13 -a 1 -x {0.0 4.0 6 ------- null}
h -t 1.712 -s 3 -d 4 -p tcp -e 1040 -c 1 -i 13 -a 1 -x {0.0 4.0 -1 ------- null}
r -t 1.7204 -s 3 -d 4 -p tcp -e 1040 -c 1 -i 10 -a 1 -x {0.0 4.0 3 ------- null}
+ -t 1.7204 -s 4 -d 3 -p ack -e 40 -c 1 -i 14 -a 1 -x {4.0 0.0 3 ------- null}
- -t 1.7204 -s 4 -d 3 -p ack -e 40 -c 1 -i 14 -a 1 -x {4.0 0.0 3 ------- null}
h -t 1.7204 -s 4 -d 3 -p ack -e 40 -c 1 -i 14 -a 1 -x {4.0 0.0 -1 ------- null}
r -t 1.73704 -s 3 -d 4 -p tcp -e 1040 -c 1 -i 11 -a 1 -x {0.0 4.0 4 ------- null}
+ -t 1.73704 -s 4 -d 3 -p ack -e 40 -c 1 -i 15 -a 1 -x {4.0 0.0 4 ------- null}
- -t 1.73704 -s 4 -d 3 -p ack -e 40 -c 1 -i 15 -a 1 -x {4.0 0.0 4 ------- null}
h -t 1.73704 -s 4 -d 3 -p ack -e 40 -c 1 -i 15 -a 1 -x {4.0 0.0 -1 ------- null}
r -t 1.75368 -s 3 -d 4 -p tcp -e 1040 -c 1 -i 12 -a 1 -x {0.0 4.0 5 ------- null}
+ -t 1.75368 -s 4 -d 3 -p ack -e 40 -c 1 -i 16 -a 1 -x {4.0 0.0 5 ------- null}
- -t 1.75368 -s 4 -d 3 -p ack -e 40 -c 1 -i 16 -a 1 -x {4.0 0.0 5 ------- null}
h -t 1.75368 -s 4 -d 3 -p ack -e 40 -c 1 -i 16 -a 1 -x {4.0 0.0 -1 ------- null}
r -t 1.77032 -s 3 -d 4 -p tcp -e 1040 -c 1 -i 13 -a 1 -x {0.0 4.0 6 ------- null}
+ -t 1.77032 -s 4 -d 3 -p ack -e 40 -c 1 -i 17 -a 1 -x {4.0 0.0 6 ------- null}
- -t 1.77032 -s 4 -d 3 -p ack -e 40 -c 1 -i 17 -a 1 -x {4.0 0.0 6 ------- null}
h -t 1.77032 -s 4 -d 3 -p ack -e 40 -c 1 -i 17 -a 1 -x {4.0 0.0 -1 ------- null}
r -t 1.77072 -s 4 -d 3 -p ack -e 40 -c 1 -i 14 -a 1 -x {4.0 0.0 3 ------- null}
+ -t 1.77072 -s 3 -d 2 -p ack -e 40 -c 1 -i 14 -a 1 -x {4.0 0.0 3 ------- null}
- -t 1.77072 -s 3 -d 2 -p ack -e 40 -c 1 -i 14 -a 1 -x {4.0 0.0 3 ------- null}
h -t 1.77072 -s 3 -d 2 -p ack -e 40 -c 1 -i 14 -a 1 -x {4.0 0.0 -1 ------- null}
r -t 1.78736 -s 4 -d 3 -p ack -e 40 -c 1 -i 15 -a 1 -x {4.0 0.0 4 ------- null}
+ -t 1.78736 -s 3 -d 2 -p ack -e 40 -c 1 -i 15 -a 1 -x {4.0 0.0 4 ------- null}
- -t 1.78736 -s 3 -d 2 -p ack -e 40 -c 1 -i 15 -a 1 -x {4.0 0.0 4 ------- null}
h -t 1.78736 -s 3 -d 2 -p ack -e 40 -c 1 -i 15 -a 1 -x {4.0 0.0 -1 ------- null}
r -t 1.80136 -s 3 -d 2 -p ack -e 40 -c 1 -i 14 -a 1 -x {4.0 0.0 3 ------- null}
+ -t 1.80136 -s 2 -d 0 -p ack -e 40 -c 1 -i 14 -a 1 -x {4.0 0.0 3 ------- null}
- -t 1.80136 -s 2 -d 0 -p ack -e 40 -c 1 -i 14 -a 1 -x {4.0 0.0 3 ------- null}
h -t 1.80136 -s 2 -d 0 -p ack -e 40 -c 1 -i 14 -a 1 -x {4.0 0.0 -1 ------- null}
r -t 1.804 -s 4 -d 3 -p ack -e 40 -c 1 -i 16 -a 1 -x {4.0 0.0 5 ------- null}
+ -t 1.804 -s 3 -d 2 -p ack -e 40 -c 1 -i 16 -a 1 -x {4.0 0.0 5 ------- null}
- -t 1.804 -s 3 -d 2 -p ack -e 40 -c 1 -i 16 -a 1 -x {4.0 0.0 5 ------- null}
h -t 1.804 -s 3 -d 2 -p ack -e 40 -c 1 -i 16 -a 1 -x {4.0 0.0 -1 ------- null}
r -t 1.818 -s 3 -d 2 -p ack -e 40 -c 1 -i 15 -a 1 -x {4.0 0.0 4 ------- null}
+ -t 1.818 -s 2 -d 0 -p ack -e 40 -c 1 -i 15 -a 1 -x {4.0 0.0 4 ------- null}
- -t 1.818 -s 2 -d 0 -p ack -e 40 -c 1 -i 15 -a 1 -x {4.0 0.0 4 ------- null}
h -t 1.818 -s 2 -d 0 -p ack -e 40 -c 1 -i 15 -a 1 -x {4.0 0.0 -1 ------- null}
r -t 1.82064 -s 4 -d 3 -p ack -e 40 -c 1 -i 17 -a 1 -x {4.0 0.0 6 ------- null}
+ -t 1.82064 -s 3 -d 2 -p ack -e 40 -c 1 -i 17 -a 1 -x {4.0 0.0 6 ------- null}
- -t 1.82064 -s 3 -d 2 -p ack -e 40 -c 1 -i 17 -a 1 -x {4.0 0.0 6 ------- null}
h -t 1.82064 -s 3 -d 2 -p ack -e 40 -c 1 -i 17 -a 1 -x {4.0 0.0 -1 ------- null}
r -t 1.83464 -s 3 -d 2 -p ack -e 40 -c 1 -i 16 -a 1 -x {4.0 0.0 5 ------- null}
+ -t 1.83464 -s 2 -d 0 -p ack -e 40 -c 1 -i 16 -a 1 -x {4.0 0.0 5 ------- null}
- -t 1.83464 -s 2 -d 0 -p ack -e 40 -c 1 -i 16 -a 1 -x {4.0 0.0 5 ------- null}
h -t 1.83464 -s 2 -d 0 -p ack -e 40 -c 1 -i 16 -a 1 -x {4.0 0.0 -1 ------- null}
r -t 1.85128 -s 3 -d 2 -p ack -e 40 -c 1 -i 17 -a 1 -x {4.0 0.0 6 ------- null}
+ -t 1.85128 -s 2 -d 0 -p ack -e 40 -c 1 -i 17 -a 1 -x {4.0 0.0 6 ------- null}
- -t 1.85128 -s 2 -d 0 -p ack -e 40 -c 1 -i 17 -a 1 -x {4.0 0.0 6 ------- null}
h -t 1.85128 -s 2 -d 0 -p ack -e 40 -c 1 -i 17 -a 1 -x {4.0 0.0 -1 ------- null}
r -t 1.85168 -s 2 -d 0 -p ack -e 40 -c 1 -i 14 -a 1 -x {4.0 0.0 3 ------- null}
+ -t 1.85168 -s 0 -d 2 -p tcp -e 1040 -c 1 -i 18 -a 1 -x {0.0 4.0 7 ------- null}
- -t 1.85168 -s 0 -d 2 -p tcp -e 1040 -c 1 -i 18 -a 1 -x {0.0 4.0 7 ------- null}
h -t 1.85168 -s 0 -d 2 -p tcp -e 1040 -c 1 -i 18 -a 1 -x {0.0 4.0 -1 ------- null}
+ -t 1.85168 -s 0 -d 2 -p tcp -e 1040 -c 1 -i 19 -a 1 -x {0.0 4.0 8 ------- null}
- -t 1.86 -s 0 -d 2 -p tcp -e 1040 -c 1 -i 19 -a 1 -x {0.0 4.0 8 ------- null}
h -t 1.86 -s 0 -d 2 -p tcp -e 1040 -c 1 -i 19 -a 1 -x {0.0 4.0 -1 ------- null}
r -t 1.86832 -s 2 -d 0 -p ack -e 40 -c 1 -i 15 -a 1 -x {4.0 0.0 4 ------- null}
+ -t 1.86832 -s 0 -d 2 -p tcp -e 1040 -c 1 -i 20 -a 1 -x {0.0 4.0 9 ------- null}
+ -t 1.86832 -s 0 -d 2 -p tcp -e 1040 -c 1 -i 21 -a 1 -x {0.0 4.0 10 ------- null}
- -t 1.86832 -s 0 -d 2 -p tcp -e 1040 -c 1 -i 20 -a 1 -x {0.0 4.0 9 ------- null}
h -t 1.86832 -s 0 -d 2 -p tcp -e 1040 -c 1 -i 20 -a 1 -x {0.0 4.0 -1 ------- null}
- -t 1.87664 -s 0 -d 2 -p tcp -e 1040 -c 1 -i 21 -a 1 -x {0.0 4.0 10 ------- null}
h -t 1.87664 -s 0 -d 2 -p tcp -e 1040 -c 1 -i 21 -a 1 -x {0.0 4.0 -1 ------- null}
r -t 1.88496 -s 2 -d 0 -p ack -e 40 -c 1 -i 16 -a 1 -x {4.0 0.0 5 ------- null}
+ -t 1.88496 -s 0 -d 2 -p tcp -e 1040 -c 1 -i 22 -a 1 -x {0.0 4.0 11 ------- null}
+ -t 1.88496 -s 0 -d 2 -p tcp -e 1040 -c 1 -i 23 -a 1 -x {0.0 4.0 12 ------- null}
- -t 1.88496 -s 0 -d 2 -p tcp -e 1040 -c 1 -i 22 -a 1 -x {0.0 4.0 11 ------- null}
h -t 1.88496 -s 0 -d 2 -p tcp -e 1040 -c 1 -i 22 -a 1 -x {0.0 4.0 -1 ------- null}
- -t 1.89328 -s 0 -d 2 -p tcp -e 1040 -c 1 -i 23 -a 1 -x {0.0 4.0 12 ------- null}
h -t 1.89328 -s 0 -d 2 -p tcp -e 1040 -c 1 -i 23 -a 1 -x {0.0 4.0 -1 ------- null}
r -t 1.9016 -s 2 -d 0 -p ack -e 40 -c 1 -i 17 -a 1 -x {4.0 0.0 6 ------- null}
+ -t 1.9016 -s 0 -d 2 -p tcp -e 1040 -c 1 -i 24 -a 1 -x {0.0 4.0 13 ------- null}
+ -t 1.9016 -s 0 -d 2 -p tcp -e 1040 -c 1 -i 25 -a 1 -x {0.0 4.0 14 ------- null}
- -t 1.9016 -s 0 -d 2 -p tcp -e 1040 -c 1 -i 24 -a 1 -x {0.0 4.0 13 ------- null}
h -t 1.9016 -s 0 -d 2 -p tcp -e 1040 -c 1 -i 24 -a 1 -x {0.0 4.0 -1 ------- null}
- -t 1.90992 -s 0 -d 2 -p tcp -e 1040 -c 1 -i 25 -a 1 -x {0.0 4.0 14 ------- null}
h -t 1.90992 -s 0 -d 2 -p tcp -e 1040 -c 1 -i 25 -a 1 -x {0.0 4.0 -1 ------- null}
r -t 1.91 -s 0 -d 2 -p tcp -e 1040 -c 1 -i 18 -a 1 -x {0.0 4.0 7 ------- null}
+ -t 1.91 -s 2 -d 3 -p tcp -e 1040 -c 1 -i 18 -a 1 -x {0.0 4.0 7 ------- null}
- -t 1.91 -s 2 -d 3 -p tcp -e 1040 -c 1 -i 18 -a 1 -x {0.0 4.0 7 ------- null}
h -t 1.91 -s 2 -d 3 -p tcp -e 1040 -c 1 -i 18 -a 1 -x {0.0 4.0 -1 ------- null}
r -t 1.91832 -s 0 -d 2 -p tcp -e 1040 -c 1 -i 19 -a 1 -x {0.0 4.0 8 ------- null}
+ -t 1.91832 -s 2 -d 3 -p tcp -e 1040 -c 1 -i 19 -a 1 -x {0.0 4.0 8 ------- null}
- -t 1.92664 -s 2 -d 3 -p tcp -e 1040 -c 1 -i 19 -a 1 -x {0.0 4.0 8 ------- null}
h -t 1.92664 -s 2 -d 3 -p tcp -e 1040 -c 1 -i 19 -a 1 -x {0.0 4.0 -1 ------- null}
r -t 1.92664 -s 0 -d 2 -p tcp -e 1040 -c 1 -i 20 -a 1 -x {0.0 4.0 9 ------- null}
+ -t 1.92664 -s 2 -d 3 -p tcp -e 1040 -c 1 -i 20 -a 1 -x {0.0 4.0 9 ------- null}
r -t 1.93496 -s 0 -d 2 -p tcp -e 1040 -c 1 -i 21 -a 1 -x {0.0 4.0 10 ------- null}
+ -t 1.93496 -s 2 -d 3 -p tcp -e 1040 -c 1 -i 21 -a 1 -x {0.0 4.0 10 ------- null}
- -t 1.94328 -s 2 -d 3 -p tcp -e 1040 -c 1 -i 20 -a 1 -x {0.0 4.0 9 ------- null}
h -t 1.94328 -s 2 -d 3 -p tcp -e 1040 -c 1 -i 20 -a 1 -x {0.0 4.0 -1 ------- null}
r -t 1.94328 -s 0 -d 2 -p tcp -e 1040 -c 1 -i 22 -a 1 -x {0.0 4.0 11 ------- null}
+ -t 1.94328 -s 2 -d 3 -p tcp -e 1040 -c 1 -i 22 -a 1 -x {0.0 4.0 11 ------- null}
r -t 1.9516 -s 0 -d 2 -p tcp -e 1040 -c 1 -i 23 -a 1 -x {0.0 4.0 12 ------- null}
+ -t 1.9516 -s 2 -d 3 -p tcp -e 1040 -c 1 -i 23 -a 1 -x {0.0 4.0 12 ------- null}
r -t 1.95664 -s 2 -d 3 -p tcp -e 1040 -c 1 -i 18 -a 1 -x {0.0 4.0 7 ------- null}
+ -t 1.95664 -s 3 -d 4 -p tcp -e 1040 -c 1 -i 18 -a 1 -x {0.0 4.0 7 ------- null}
- -t 1.95664 -s 3 -d 4 -p tcp -e 1040 -c 1 -i 18 -a 1 -x {0.0 4.0 7 ------- null}
h -t 1.95664 -s 3 -d 4 -p tcp -e 1040 -c 1 -i 18 -a 1 -x {0.0 4.0 -1 ------- null}
- -t 1.95992 -s 2 -d 3 -p tcp -e 1040 -c 1 -i 21 -a 1 -x {0.0 4.0 10 ------- null}
h -t 1.95992 -s 2 -d 3 -p tcp -e 1040 -c 1 -i 21 -a 1 -x {0.0 4.0 -1 ------- null}
r -t 1.95992 -s 0 -d 2 -p tcp -e 1040 -c 1 -i 24 -a 1 -x {0.0 4.0 13 ------- null}
+ -t 1.95992 -s 2 -d 3 -p tcp -e 1040 -c 1 -i 24 -a 1 -x {0.0 4.0 13 ------- null}
r -t 1.96824 -s 0 -d 2 -p tcp -e 1040 -c 1 -i 25 -a 1 -x {0.0 4.0 14 ------- null}
+ -t 1.96824 -s 2 -d 3 -p tcp -e 1040 -c 1 -i 25 -a 1 -x {0.0 4.0 14 ------- null}
r -t 1.97328 -s 2 -d 3 -p tcp -e 1040 -c 1 -i 19 -a 1 -x {0.0 4.0 8 ------- null}
+ -t 1.97328 -s 3 -d 4 -p tcp -e 1040 -c 1 -i 19 -a 1 -x {0.0 4.0 8 ------- null}
- -t 1.97328 -s 3 -d 4 -p tcp -e 1040 -c 1 -i 19 -a 1 -x {0.0 4.0 8 ------- null}
h -t 1.97328 -s 3 -d 4 -p tcp -e 1040 -c 1 -i 19 -a 1 -x {0.0 4.0 -1 ------- null}
- -t 1.97656 -s 2 -d 3 -p tcp -e 1040 -c 1 -i 22 -a 1 -x {0.0 4.0 11 ------- null}
h -t 1.97656 -s 2 -d 3 -p tcp -e 1040 -c 1 -i 22 -a 1 -x {0.0 4.0 -1 ------- null}
r -t 1.98992 -s 2 -d 3 -p tcp -e 1040 -c 1 -i 20 -a 1 -x {0.0 4.0 9 ------- null}
+ -t 1.98992 -s 3 -d 4 -p tcp -e 1040 -c 1 -i 20 -a 1 -x {0.0 4.0 9 ------- null}
- -t 1.98992 -s 3 -d 4 -p tcp -e 1040 -c 1 -i 20 -a 1 -x {0.0 4.0 9 ------- null}
h -t 1.98992 -s 3 -d 4 -p tcp -e 1040 -c 1 -i 20 -a 1 -x {0.0 4.0 -1 ------- null}
- -t 1.9932 -s 2 -d 3 -p tcp -e 1040 -c 1 -i 23 -a 1 -x {0.0 4.0 12 ------- null}
h -t 1.9932 -s 2 -d 3 -p tcp -e 1040 -c 1 -i 23 -a 1 -x {0.0 4.0 -1 ------- null}
r -t 2.00656 -s 2 -d 3 -p tcp -e 1040 -c 1 -i 21 -a 1 -x {0.0 4.0 10 ------- null}
+ -t 2.00656 -s 3 -d 4 -p tcp -e 1040 -c 1 -i 21 -a 1 -x {0.0 4.0 10 ------- null}
- -t 2.00656 -s 3 -d 4 -p tcp -e 1040 -c 1 -i 21 -a 1 -x {0.0 4.0 10 ------- null}
h -t 2.00656 -s 3 -d 4 -p tcp -e 1040 -c 1 -i 21 -a 1 -x {0.0 4.0 -1 ------- null}
- -t 2.00984 -s 2 -d 3 -p tcp -e 1040 -c 1 -i 24 -a 1 -x {0.0 4.0 13 ------- null}
h -t 2.00984 -s 2 -d 3 -p tcp -e 1040 -c 1 -i 24 -a 1 -x {0.0 4.0 -1 ------- null}
r -t 2.01496 -s 3 -d 4 -p tcp -e 1040 -c 1 -i 18 -a 1 -x {0.0 4.0 7 ------- null}
+ -t 2.01496 -s 4 -d 3 -p ack -e 40 -c 1 -i 26 -a 1 -x {4.0 0.0 7 ------- null}
- -t 2.01496 -s 4 -d 3 -p ack -e 40 -c 1 -i 26 -a 1 -x {4.0 0.0 7 ------- null}
h -t 2.01496 -s 4 -d 3 -p ack -e 40 -c 1 -i 26 -a 1 -x {4.0 0.0 -1 ------- null}
r -t 2.0232 -s 2 -d 3 -p tcp -e 1040 -c 1 -i 22 -a 1 -x {0.0 4.0 11 ------- null}
+ -t 2.0232 -s 3 -d 4 -p tcp -e 1040 -c 1 -i 22 -a 1 -x {0.0 4.0 11 ------- null}
- -t 2.0232 -s 3 -d 4 -p tcp -e 1040 -c 1 -i 22 -a 1 -x {0.0 4.0 11 ------- null}
h -t 2.0232 -s 3 -d 4 -p tcp -e 1040 -c 1 -i 22 -a 1 -x {0.0 4.0 -1 ------- null}
- -t 2.02648 -s 2 -d 3 -p tcp -e 1040 -c 1 -i 25 -a 1 -x {0.0 4.0 14 ------- null}
h -t 2.02648 -s 2 -d 3 -p tcp -e 1040 -c 1 -i 25 -a 1 -x {0.0 4.0 -1 ------- null}
r -t 2.0316 -s 3 -d 4 -p tcp -e 1040 -c 1 -i 19 -a 1 -x {0.0 4.0 8 ------- null}
+ -t 2.0316 -s 4 -d 3 -p ack -e 40 -c 1 -i 27 -a 1 -x {4.0 0.0 8 ------- null}
- -t 2.0316 -s 4 -d 3 -p ack -e 40 -c 1 -i 27 -a 1 -x {4.0 0.0 8 ------- null}
h -t 2.0316 -s 4 -d 3 -p ack -e 40 -c 1 -i 27 -a 1 -x {4.0 0.0 -1 ------- null}
r -t 2.03984 -s 2 -d 3 -p tcp -e 1040 -c 1 -i 23 -a 1 -x {0.0 4.0 12 ------- null}
+ -t 2.03984 -s 3 -d 4 -p tcp -e 1040 -c 1 -i 23 -a 1 -x {0.0 4.0 12 ------- null}
- -t 2.03984 -s 3 -d 4 -p tcp -e 1040 -c 1 -i 23 -a 1 -x {0.0 4.0 12 ------- null}
h -t 2.03984 -s 3 -d 4 -p tcp -e 1040 -c 1 -i 23 -a 1 -x {0.0 4.0 -1 ------- null}
r -t 2.04824 -s 3 -d 4 -p tcp -e 1040 -c 1 -i 20 -a 1 -x {0.0 4.0 9 ------- null}
+ -t 2.04824 -s 4 -d 3 -p ack -e 40 -c 1 -i 28 -a 1 -x {4.0 0.0 9 ------- null}
- -t 2.04824 -s 4 -d 3 -p ack -e 40 -c 1 -i 28 -a 1 -x {4.0 0.0 9 ------- null}
h -t 2.04824 -s 4 -d 3 -p ack -e 40 -c 1 -i 28 -a 1 -x {4.0 0.0 -1 ------- null}
r -t 2.05648 -s 2 -d 3 -p tcp -e 1040 -c 1 -i 24 -a 1 -x {0.0 4.0 13 ------- null}
+ -t 2.05648 -s 3 -d 4 -p tcp -e 1040 -c 1 -i 24 -a 1 -x {0.0 4.0 13 ------- null}
- -t 2.05648 -s 3 -d 4 -p tcp -e 1040 -c 1 -i 24 -a 1 -x {0.0 4.0 13 ------- null}
h -t 2.05648 -s 3 -d 4 -p tcp -e 1040 -c 1 -i 24 -a 1 -x {0.0 4.0 -1 ------- null}
r -t 2.06488 -s 3 -d 4 -p tcp -e 1040 -c 1 -i 21 -a 1 -x {0.0 4.0 10 ------- null}
+ -t 2.06488 -s 4 -d 3 -p ack -e 40 -c 1 -i 29 -a 1 -x {4.0 0.0 10 ------- null}
- -t 2.06488 -s 4 -d 3 -p ack -e 40 -c 1 -i 29 -a 1 -x {4.0 0.0 10 ------- null}
h -t 2.06488 -s 4 -d 3 -p ack -e 40 -c 1 -i 29 -a 1 -x {4.0 0.0 -1 ------- null}
r -t 2.06528 -s 4 -d 3 -p ack -e 40 -c 1 -i 26 -a 1 -x {4.0 0.0 7 ------- null}
+ -t 2.06528 -s 3 -d 2 -p ack -e 40 -c 1 -i 26 -a 1 -x {4.0 0.0 7 ------- null}
- -t 2.06528 -s 3 -d 2 -p ack -e 40 -c 1 -i 26 -a 1 -x {4.0 0.0 7 ------- null}
h -t 2.06528 -s 3 -d 2 -p ack -e 40 -c 1 -i 26 -a 1 -x {4.0 0.0 -1 ------- null}
r -t 2.07312 -s 2 -d 3 -p tcp -e 1040 -c 1 -i 25 -a 1 -x {0.0 4.0 14 ------- null}
+ -t 2.07312 -s 3 -d 4 -p tcp -e 1040 -c 1 -i 25 -a 1 -x {0.0 4.0 14 ------- null}
- -t 2.07312 -s 3 -d 4 -p tcp -e 1040 -c 1 -i 25 -a 1 -x {0.0 4.0 14 ------- null}
h -t 2.07312 -s 3 -d 4 -p tcp -e 1040 -c 1 -i 25 -a 1 -x {0.0 4.0 -1 ------- null}
r -t 2.08152 -s 3 -d 4 -p tcp -e 1040 -c 1 -i 22 -a 1 -x {0.0 4.0 11 ------- null}
+ -t 2.08152 -s 4 -d 3 -p ack -e 40 -c 1 -i 30 -a 1 -x {4.0 0.0 11 ------- null}
- -t 2.08152 -s 4 -d 3 -p ack -e 40 -c 1 -i 30 -a 1 -x {4.0 0.0 11 ------- null}
h -t 2.08152 -s 4 -d 3 -p ack -e 40 -c 1 -i 30 -a 1 -x {4.0 0.0 -1 ------- null}
r -t 2.08192 -s 4 -d 3 -p ack -e 40 -c 1 -i 27 -a 1 -x {4.0 0.0 8 ------- null}
+ -t 2.08192 -s 3 -d 2 -p ack -e 40 -c 1 -i 27 -a 1 -x {4.0 0.0 8 ------- null}
- -t 2.08192 -s 3 -d 2 -p ack -e 40 -c 1 -i 27 -a 1 -x {4.0 0.0 8 ------- null}
h -t 2.08192 -s 3 -d 2 -p ack -e 40 -c 1 -i 27 -a 1 -x {4.0 0.0 -1 ------- null}
r -t 2.09592 -s 3 -d 2 -p ack -e 40 -c 1 -i 26 -a 1 -x {4.0 0.0 7 ------- null}
+ -t 2.09592 -s 2 -d 0 -p ack -e 40 -c 1 -i 26 -a 1 -x {4.0 0.0 7 ------- null}
- -t 2.09592 -s 2 -d 0 -p ack -e 40 -c 1 -i 26 -a 1 -x {4.0 0.0 7 ------- null}
h -t 2.09592 -s 2 -d 0 -p ack -e 40 -c 1 -i 26 -a 1 -x {4.0 0.0 -1 ------- null}
r -t 2.09816 -s 3 -d 4 -p tcp -e 1040 -c 1 -i 23 -a 1 -x {0.0 4.0 12 ------- null}
+ -t 2.09816 -s 4 -d 3 -p ack -e 40 -c 1 -i 31 -a 1 -x {4.0 0.0 12 ------- null}
- -t 2.09816 -s 4 -d 3 -p ack -e 40 -c 1 -i 31 -a 1 -x {4.0 0.0 12 ------- null}
h -t 2.09816 -s 4 -d 3 -p ack -e 40 -c 1 -i 31 -a 1 -x {4.0 0.0 -1 ------- null}
r -t 2.09856 -s 4 -d 3 -p ack -e 40 -c 1 -i 28 -a 1 -x {4.0 0.0 9 ------- null}
+ -t 2.09856 -s 3 -d 2 -p ack -e 40 -c 1 -i 28 -a 1 -x {4.0 0.0 9 ------- null}
- -t 2.09856 -s 3 -d 2 -p ack -e 40 -c 1 -i 28 -a 1 -x {4.0 0.0 9 ------- null}
h -t 2.09856 -s 3 -d 2 -p ack -e 40 -c 1 -i 28 -a 1 -x {4.0 0.0 -1 ------- null}
r -t 2.11256 -s 3 -d 2 -p ack -e 40 -c 1 -i 27 -a 1 -x {4.0 0.0 8 ------- null}
+ -t 2.11256 -s 2 -d 0 -p ack -e 40 -c 1 -i 27 -a 1 -x {4.0 0.0 8 ------- null}
- -t 2.11256 -s 2 -d 0 -p ack -e 40 -c 1 -i 27 -a 1 -x {4.0 0.0 8 ------- null}
h -t 2.11256 -s 2 -d 0 -p ack -e 40 -c 1 -i 27 -a 1 -x {4.0 0.0 -1 ------- null}
r -t 2.1148 -s 3 -d 4 -p tcp -e 1040 -c 1 -i 24 -a 1 -x {0.0 4.0 13 ------- null}
+ -t 2.1148 -s 4 -d 3 -p ack -e 40 -c 1 -i 32 -a 1 -x {4.0 0.0 13 ------- null}
- -t 2.1148 -s 4 -d 3 -p ack -e 40 -c 1 -i 32 -a 1 -x {4.0 0.0 13 ------- null}
h -t 2.1148 -s 4 -d 3 -p ack -e 40 -c 1 -i 32 -a 1 -x {4.0 0.0 -1 ------- null}
r -t 2.1152 -s 4 -d 3 -p ack -e 40 -c 1 -i 29 -a 1 -x {4.0 0.0 10 ------- null}
+ -t 2.1152 -s 3 -d 2 -p ack -e 40 -c 1 -i 29 -a 1 -x {4.0 0.0 10 ------- null}
- -t 2.1152 -s 3 -d 2 -p ack -e 40 -c 1 -i 29 -a 1 -x {4.0 0.0 10 ------- null}
h -t 2.1152 -s 3 -d 2 -p ack -e 40 -c 1 -i 29 -a 1 -x {4.0 0.0 -1 ------- null}
r -t 2.1292 -s 3 -d 2 -p ack -e 40 -c 1 -i 28 -a 1 -x {4.0 0.0 9 ------- null}
+ -t 2.1292 -s 2 -d 0 -p ack -e 40 -c 1 -i 28 -a 1 -x {4.0 0.0 9 ------- null}
- -t 2.1292 -s 2 -d 0 -p ack -e 40 -c 1 -i 28 -a 1 -x {4.0 0.0 9 ------- null}
h -t 2.1292 -s 2 -d 0 -p ack -e 40 -c 1 -i 28 -a 1 -x {4.0 0.0 -1 ------- null}
r -t 2.13144 -s 3 -d 4 -p tcp -e 1040 -c 1 -i 25 -a 1 -x {0.0 4.0 14 ------- null}