+ 0.2 1 2 cbr 1000 ------- 2 1.0 5.0 0 0
- 0.2 1 2 cbr 1000 ------- 2 1.0 5.0 0 0
+ 0.2 1 2 cbr 460 ------- 2 1.0 5.0 1 1
- 0.208 1 2 cbr 460 ------- 2 1.0 5.0 1 1
r 0.258 1 2 cbr 1000 ------- 2 1.0 5.0 0 0
+ 0.258 2 3 cbr 1000 ------- 2 1.0 5.0 0 0
- 0.258 2 3 cbr 1000 ------- 2 1.0 5.0 0 0
r 0.26168 1 2 cbr 460 ------- 2 1.0 5.0 1 1
+ 0.26168 2 3 cbr 460 ------- 2 1.0 5.0 1 1
- 0.274 2 3 cbr 460 ------- 2 1.0 5.0 1 1
r 0.304 2 3 cbr 1000 ------- 2 1.0 5.0 0 0
+ 0.304 3 5 cbr 1000 ------- 2 1.0 5.0 0 0
- 0.304 3 5 cbr 1000 ------- 2 1.0 5.0 0 0
r 0.31136 2 3 cbr 460 ------- 2 1.0 5.0 1 1
+ 0.31136 3 5 cbr 460 ------- 2 1.0 5.0 1 1
- 0.312 3 5 cbr 460 ------- 2 1.0 5.0 1 1
r 0.362 3 5 cbr 1000 ------- 2 1.0 5.0 0 0
r 0.36568 3 5 cbr 460 ------- 2 1.0 5.0 1 1
+ 1 0 2 tcp 40 ------- 1 0.0 4.0 0 2
- 1 0 2 tcp 40 ------- 1 0.0 4.0 0 2
r 1.05032 0 2 tcp 40 ------- 1 0.0 4.0 0 2
+ 1.05032 2 3 tcp 40 ------- 1 0.0 4.0 0 2
- 1.05032 2 3 tcp 40 ------- 1 0.0 4.0 0 2
r 1.08096 2 3 tcp 40 ------- 1 0.0 4.0 0 2
+ 1.08096 3 4 tcp 40 ------- 1 0.0 4.0 0 2
- 1.08096 3 4 tcp 40 ------- 1 0.0 4.0 0 2
r 1.13128 3 4 tcp 40 ------- 1 0.0 4.0 0 2
+ 1.13128 4 3 ack 40 ------- 1 4.0 0.0 0 3
- 1.13128 4 3 ack 40 ------- 1 4.0 0.0 0 3
r 1.1816 4 3 ack 40 ------- 1 4.0 0.0 0 3
+ 1.1816 3 2 ack 40 ------- 1 4.0 0.0 0 3
- 1.1816 3 2 ack 40 ------- 1 4.0 0.0 0 3
r 1.21224 3 2 ack 40 ------- 1 4.0 0.0 0 3
+ 1.21224 2 0 ack 40 ------- 1 4.0 0.0 0 3
- 1.21224 2 0 ack 40 ------- 1 4.0 0.0 0 3
r 1.26256 2 0 ack 40 ------- 1 4.0 0.0 0 3
+ 1.26256 0 2 tcp 1040 ------- 1 0.0 4.0 1 4
- 1.26256 0 2 tcp 1040 ------- 1 0.0 4.0 1 4
+ 1.26256 0 2 tcp 1040 ------- 1 0.0 4.0 2 5
- 1.27088 0 2 tcp 1040 ------- 1 0.0 4.0 2 5
r 1.32088 0 2 tcp 1040 ------- 1 0.0 4.0 1 4
+ 1.32088 2 3 tcp 1040 ------- 1 0.0 4.0 1 4
- 1.32088 2 3 tcp 1040 ------- 1 0.0 4.0 1 4
r 1.3292 0 2 tcp 1040 ------- 1 0.0 4.0 2 5
+ 1.3292 2 3 tcp 1040 ------- 1 0.0 4.0 2 5
- 1.33752 2 3 tcp 1040 ------- 1 0.0 4.0 2 5
r 1.36752 2 3 tcp 1040 ------- 1 0.0 4.0 1 4
+ 1.36752 3 4 tcp 1040 ------- 1 0.0 4.0 1 4
- 1.36752 3 4 tcp 1040 ------- 1 0.0 4.0 1 4
+ 1.368 1 2 cbr 1000 ------- 2 1.0 5.0 2 6
- 1.368 1 2 cbr 1000 ------- 2 1.0 5.0 2 6
+ 1.368 1 2 cbr 460 ------- 2 1.0 5.0 3 7
- 1.376 1 2 cbr 460 ------- 2 1.0 5.0 3 7
r 1.38416 2 3 tcp 1040 ------- 1 0.0 4.0 2 5
+ 1.38416 3 4 tcp 1040 ------- 1 0.0 4.0 2 5
- 1.38416 3 4 tcp 1040 ------- 1 0.0 4.0 2 5
r 1.42584 3 4 tcp 1040 ------- 1 0.0 4.0 1 4
+ 1.42584 4 3 ack 40 ------- 1 4.0 0.0 1 8
- 1.42584 4 3 ack 40 ------- 1 4.0 0.0 1 8
r 1.426 1 2 cbr 1000 ------- 2 1.0 5.0 2 6
+ 1.426 2 3 cbr 1000 ------- 2 1.0 5.0 2 6
- 1.426 2 3 cbr 1000 ------- 2 1.0 5.0 2 6
r 1.42968 1 2 cbr 460 ------- 2 1.0 5.0 3 7
+ 1.42968 2 3 cbr 460 ------- 2 1.0 5.0 3 7
- 1.442 2 3 cbr 460 ------- 2 1.0 5.0 3 7
r 1.44248 3 4 tcp 1040 ------- 1 0.0 4.0 2 5
+ 1.44248 4 3 ack 40 ------- 1 4.0 0.0 2 9
- 1.44248 4 3 ack 40 ------- 1 4.0 0.0 2 9
r 1.472 2 3 cbr 1000 ------- 2 1.0 5.0 2 6
+ 1.472 3 5 cbr 1000 ------- 2 1.0 5.0 2 6
- 1.472 3 5 cbr 1000 ------- 2 1.0 5.0 2 6
r 1.47616 4 3 ack 40 ------- 1 4.0 0.0 1 8
+ 1.47616 3 2 ack 40 ------- 1 4.0 0.0 1 8
- 1.47616 3 2 ack 40 ------- 1 4.0 0.0 1 8
r 1.47936 2 3 cbr 460 ------- 2 1.0 5.0 3 7
+ 1.47936 3 5 cbr 460 ------- 2 1.0 5.0 3 7
- 1.48 3 5 cbr 460 ------- 2 1.0 5.0 3 7
r 1.4928 4 3 ack 40 ------- 1 4.0 0.0 2 9
+ 1.4928 3 2 ack 40 ------- 1 4.0 0.0 2 9
- 1.4928 3 2 ack 40 ------- 1 4.0 0.0 2 9
r 1.5068 3 2 ack 40 ------- 1 4.0 0.0 1 8
+ 1.5068 2 0 ack 40 ------- 1 4.0 0.0 1 8
- 1.5068 2 0 ack 40 ------- 1 4.0 0.0 1 8
r 1.52344 3 2 ack 40 ------- 1 4.0 0.0 2 9
+ 1.52344 2 0 ack 40 ------- 1 4.0 0.0 2 9
- 1.52344 2 0 ack 40 ------- 1 4.0 0.0 2 9
r 1.53 3 5 cbr 1000 ------- 2 1.0 5.0 2 6
r 1.53368 3 5 cbr 460 ------- 2 1.0 5.0 3 7
r 1.55712 2 0 ack 40 ------- 1 4.0 0.0 1 8
+ 1.55712 0 2 tcp 1040 ------- 1 0.0 4.0 3 10
- 1.55712 0 2 tcp 1040 ------- 1 0.0 4.0 3 10
+ 1.55712 0 2 tcp 1040 ------- 1 0.0 4.0 4 11
- 1.56544 0 2 tcp 1040 ------- 1 0.0 4.0 4 11
r 1.57376 2 0 ack 40 ------- 1 4.0 0.0 2 9
+ 1.57376 0 2 tcp 1040 ------- 1 0.0 4.0 5 12
+ 1.57376 0 2 tcp 1040 ------- 1 0.0 4.0 6 13
- 1.57376 0 2 tcp 1040 ------- 1 0.0 4.0 5 12
- 1.58208 0 2 tcp 1040 ------- 1 0.0 4.0 6 13
r 1.61544 0 2 tcp 1040 ------- 1 0.0 4.0 3 10
+ 1.61544 2 3 tcp 1040 ------- 1 0.0 4.0 3 10
- 1.61544 2 3 tcp 1040 ------- 1 0.0 4.0 3 10
r 1.62376 0 2 tcp 1040 ------- 1 0.0 4.0 4 11
+ 1.62376 2 3 tcp 1040 ------- 1 0.0 4.0 4 11
- 1.63208 2 3 tcp 1040 ------- 1 0.0 4.0 4 11
r 1.63208 0 2 tcp 1040 ------- 1 0.0 4.0 5 12
+ 1.63208 2 3 tcp 1040 ------- 1 0.0 4.0 5 12
r 1.6404 0 2 tcp 1040 ------- 1 0.0 4.0 6 13
+ 1.6404 2 3 tcp 1040 ------- 1 0.0 4.0 6 13
- 1.64872 2 3 tcp 1040 ------- 1 0.0 4.0 5 12
r 1.66208 2 3 tcp 1040 ------- 1 0.0 4.0 3 10
+ 1.66208 3 4 tcp 1040 ------- 1 0.0 4.0 3 10
- 1.66208 3 4 tcp 1040 ------- 1 0.0 4.0 3 10
- 1.66536 2 3 tcp 1040 ------- 1 0.0 4.0 6 13
r 1.67872 2 3 tcp 1040 ------- 1 0.0 4.0 4 11
+ 1.67872 3 4 tcp 1040 ------- 1 0.0 4.0 4 11
- 1.67872 3 4 tcp 1040 ------- 1 0.0 4.0 4 11
r 1.69536 2 3 tcp 1040 ------- 1 0.0 4.0 5 12
+ 1.69536 3 4 tcp 1040 ------- 1 0.0 4.0 5 12
- 1.69536 3 4 tcp 1040 ------- 1 0.0 4.0 5 12
r 1.712 2 3 tcp 1040 ------- 1 0.0 4.0 6 13
+ 1.712 3 4 tcp 1040 ------- 1 0.0 4.0 6 13
- 1.712 3 4 tcp 1040 ------- 1 0.0 4.0 6 13
r 1.7204 3 4 tcp 1040 ------- 1 0.0 4.0 3 10
+ 1.7204 4 3 ack 40 ------- 1 4.0 0.0 3 14
- 1.7204 4 3 ack 40 ------- 1 4.0 0.0 3 14
r 1.73704 3 4 tcp 1040 ------- 1 0.0 4.0 4 11
+ 1.73704 4 3 ack 40 ------- 1 4.0 0.0 4 15
- 1.73704 4 3 ack 40 ------- 1 4.0 0.0 4 15
r 1.75368 3 4 tcp 1040 ------- 1 0.0 4.0 5 12
+ 1.75368 4 3 ack 40 ------- 1 4.0 0.0 5 16
- 1.75368 4 3 ack 40 ------- 1 4.0 0.0 5 16
r 1.77032 3 4 tcp 1040 ------- 1 0.0 4.0 6 13
+ 1.77032 4 3 ack 40 ------- 1 4.0 0.0 6 17
- 1.77032 4 3 ack 40 ------- 1 4.0 0.0 6 17
r 1.77072 4 3 ack 40 ------- 1 4.0 0.0 3 14
+ 1.77072 3 2 ack 40 ------- 1 4.0 0.0 3 14
- 1.77072 3 2 ack 40 ------- 1 4.0 0.0 3 14
r 1.78736 4 3 ack 40 ------- 1 4.0 0.0 4 15
+ 1.78736 3 2 ack 40 ------- 1 4.0 0.0 4 15
- 1.78736 3 2 ack 40 ------- 1 4.0 0.0 4 15
r 1.80136 3 2 ack 40 ------- 1 4.0 0.0 3 14
+ 1.80136 2 0 ack 40 ------- 1 4.0 0.0 3 14
- 1.80136 2 0 ack 40 ------- 1 4.0 0.0 3 14
r 1.804 4 3 ack 40 ------- 1 4.0 0.0 5 16
+ 1.804 3 2 ack 40 ------- 1 4.0 0.0 5 16
- 1.804 3 2 ack 40 ------- 1 4.0 0.0 5 16
r 1.818 3 2 ack 40 ------- 1 4.0 0.0 4 15
+ 1.818 2 0 ack 40 ------- 1 4.0 0.0 4 15
- 1.818 2 0 ack 40 ------- 1 4.0 0.0 4 15
r 1.82064 4 3 ack 40 ------- 1 4.0 0.0 6 17
+ 1.82064 3 2 ack 40 ------- 1 4.0 0.0 6 17
- 1.82064 3 2 ack 40 ------- 1 4.0 0.0 6 17
r 1.83464 3 2 ack 40 ------- 1 4.0 0.0 5 16
+ 1.83464 2 0 ack 40 ------- 1 4.0 0.0 5 16
- 1.83464 2 0 ack 40 ------- 1 4.0 0.0 5 16
r 1.85128 3 2 ack 40 ------- 1 4.0 0.0 6 17
+ 1.85128 2 0 ack 40 ------- 1 4.0 0.0 6 17
- 1.85128 2 0 ack 40 ------- 1 4.0 0.0 6 17
r 1.85168 2 0 ack 40 ------- 1 4.0 0.0 3 14
+ 1.85168 0 2 tcp 1040 ------- 1 0.0 4.0 7 18
- 1.85168 0 2 tcp 1040 ------- 1 0.0 4.0 7 18
+ 1.85168 0 2 tcp 1040 ------- 1 0.0 4.0 8 19
- 1.86 0 2 tcp 1040 ------- 1 0.0 4.0 8 19
r 1.86832 2 0 ack 40 ------- 1 4.0 0.0 4 15
+ 1.86832 0 2 tcp 1040 ------- 1 0.0 4.0 9 20
+ 1.86832 0 2 tcp 1040 ------- 1 0.0 4.0 10 21
- 1.86832 0 2 tcp 1040 ------- 1 0.0 4.0 9 20
- 1.87664 0 2 tcp 1040 ------- 1 0.0 4.0 10 21
r 1.88496 2 0 ack 40 ------- 1 4.0 0.0 5 16
+ 1.88496 0 2 tcp 1040 ------- 1 0.0 4.0 11 22
+ 1.88496 0 2 tcp 1040 ------- 1 0.0 4.0 12 23
- 1.88496 0 2 tcp 1040 ------- 1 0.0 4.0 11 22
- 1.89328 0 2 tcp 1040 ------- 1 0.0 4.0 12 23
r 1.9016 2 0 ack 40 ------- 1 4.0 0.0 6 17
+ 1.9016 0 2 tcp 1040 ------- 1 0.0 4.0 13 24
+ 1.9016 0 2 tcp 1040 ------- 1 0.0 4.0 14 25
- 1.9016 0 2 tcp 1040 ------- 1 0.0 4.0 13 24
- 1.90992 0 2 tcp 1040 ------- 1 0.0 4.0 14 25
r 1.91 0 2 tcp 1040 ------- 1 0.0 4.0 7 18
+ 1.91 2 3 tcp 1040 ------- 1 0.0 4.0 7 18
- 1.91 2 3 tcp 1040 ------- 1 0.0 4.0 7 18
r 1.91832 0 2 tcp 1040 ------- 1 0.0 4.0 8 19
+ 1.91832 2 3 tcp 1040 ------- 1 0.0 4.0 8 19
- 1.92664 2 3 tcp 1040 ------- 1 0.0 4.0 8 19
r 1.92664 0 2 tcp 1040 ------- 1 0.0 4.0 9 20
+ 1.92664 2 3 tcp 1040 ------- 1 0.0 4.0 9 20
r 1.93496 0 2 tcp 1040 ------- 1 0.0 4.0 10 21
+ 1.93496 2 3 tcp 1040 ------- 1 0.0 4.0 10 21
- 1.94328 2 3 tcp 1040 ------- 1 0.0 4.0 9 20
r 1.94328 0 2 tcp 1040 ------- 1 0.0 4.0 11 22
+ 1.94328 2 3 tcp 1040 ------- 1 0.0 4.0 11 22
r 1.9516 0 2 tcp 1040 ------- 1 0.0 4.0 12 23
+ 1.9516 2 3 tcp 1040 ------- 1 0.0 4.0 12 23
r 1.95664 2 3 tcp 1040 ------- 1 0.0 4.0 7 18
+ 1.95664 3 4 tcp 1040 ------- 1 0.0 4.0 7 18
- 1.95664 3 4 tcp 1040 ------- 1 0.0 4.0 7 18
- 1.95992 2 3 tcp 1040 ------- 1 0.0 4.0 10 21
r 1.95992 0 2 tcp 1040 ------- 1 0.0 4.0 13 24
+ 1.95992 2 3 tcp 1040 ------- 1 0.0 4.0 13 24
r 1.96824 0 2 tcp 1040 ------- 1 0.0 4.0 14 25
+ 1.96824 2 3 tcp 1040 ------- 1 0.0 4.0 14 25
r 1.97328 2 3 tcp 1040 ------- 1 0.0 4.0 8 19
+ 1.97328 3 4 tcp 1040 ------- 1 0.0 4.0 8 19
- 1.97328 3 4 tcp 1040 ------- 1 0.0 4.0 8 19
- 1.97656 2 3 tcp 1040 ------- 1 0.0 4.0 11 22
r 1.98992 2 3 tcp 1040 ------- 1 0.0 4.0 9 20
+ 1.98992 3 4 tcp 1040 ------- 1 0.0 4.0 9 20
- 1.98992 3 4 tcp 1040 ------- 1 0.0 4.0 9 20
- 1.9932 2 3 tcp 1040 ------- 1 0.0 4.0 12 23
r 2.00656 2 3 tcp 1040 ------- 1 0.0 4.0 10 21
+ 2.00656 3 4 tcp 1040 ------- 1 0.0 4.0 10 21
- 2.00656 3 4 tcp 1040 ------- 1 0.0 4.0 10 21
- 2.00984 2 3 tcp 1040 ------- 1 0.0 4.0 13 24
r 2.01496 3 4 tcp 1040 ------- 1 0.0 4.0 7 18
+ 2.01496 4 3 ack 40 ------- 1 4.0 0.0 7 26
- 2.01496 4 3 ack 40 ------- 1 4.0 0.0 7 26
r 2.0232 2 3 tcp 1040 ------- 1 0.0 4.0 11 22
+ 2.0232 3 4 tcp 1040 ------- 1 0.0 4.0 11 22
- 2.0232 3 4 tcp 1040 ------- 1 0.0 4.0 11 22
- 2.02648 2 3 tcp 1040 ------- 1 0.0 4.0 14 25
r 2.0316 3 4 tcp 1040 ------- 1 0.0 4.0 8 19
+ 2.0316 4 3 ack 40 ------- 1 4.0 0.0 8 27
- 2.0316 4 3 ack 40 ------- 1 4.0 0.0 8 27
r 2.03984 2 3 tcp 1040 ------- 1 0.0 4.0 12 23
+ 2.03984 3 4 tcp 1040 ------- 1 0.0 4.0 12 23
- 2.03984 3 4 tcp 1040 ------- 1 0.0 4.0 12 23
r 2.04824 3 4 tcp 1040 ------- 1 0.0 4.0 9 20
+ 2.04824 4 3 ack 40 ------- 1 4.0 0.0 9 28
- 2.04824 4 3 ack 40 ------- 1 4.0 0.0 9 28
r 2.05648 2 3 tcp 1040 ------- 1 0.0 4.0 13 24
+ 2.05648 3 4 tcp 1040 ------- 1 0.0 4.0 13 24
- 2.05648 3 4 tcp 1040 ------- 1 0.0 4.0 13 24
r 2.06488 3 4 tcp 1040 ------- 1 0.0 4.0 10 21
+ 2.06488 4 3 ack 40 ------- 1 4.0 0.0 10 29
- 2.06488 4 3 ack 40 ------- 1 4.0 0.0 10 29
r 2.06528 4 3 ack 40 ------- 1 4.0 0.0 7 26
+ 2.06528 3 2 ack 40 ------- 1 4.0 0.0 7 26
- 2.06528 3 2 ack 40 ------- 1 4.0 0.0 7 26
r 2.07312 2 3 tcp 1040 ------- 1 0.0 4.0 14 25
+ 2.07312 3 4 tcp 1040 ------- 1 0.0 4.0 14 25
- 2.07312 3 4 tcp 1040 ------- 1 0.0 4.0 14 25
r 2.08152 3 4 tcp 1040 ------- 1 0.0 4.0 11 22
+ 2.08152 4 3 ack 40 ------- 1 4.0 0.0 11 30
- 2.08152 4 3 ack 40 ------- 1 4.0 0.0 11 30
r 2.08192 4 3 ack 40 ------- 1 4.0 0.0 8 27
+ 2.08192 3 2 ack 40 ------- 1 4.0 0.0 8 27
- 2.08192 3 2 ack 40 ------- 1 4.0 0.0 8 27
r 2.09592 3 2 ack 40 ------- 1 4.0 0.0 7 26
+ 2.09592 2 0 ack 40 ------- 1 4.0 0.0 7 26
- 2.09592 2 0 ack 40 ------- 1 4.0 0.0 7 26
r 2.09816 3 4 tcp 1040 ------- 1 0.0 4.0 12 23
+ 2.09816 4 3 ack 40 ------- 1 4.0 0.0 12 31
- 2.09816 4 3 ack 40 ------- 1 4.0 0.0 12 31
r 2.09856 4 3 ack 40 ------- 1 4.0 0.0 9 28
+ 2.09856 3 2 ack 40 ------- 1 4.0 0.0 9 28
- 2.09856 3 2 ack 40 ------- 1 4.0 0.0 9 28
r 2.11256 3 2 ack 40 ------- 1 4.0 0.0 8 27
+ 2.11256 2 0 ack 40 ------- 1 4.0 0.0 8 27
- 2.11256 2 0 ack 40 ------- 1 4.0 0.0 8 27
r 2.1148 3 4 tcp 1040 ------- 1 0.0 4.0 13 24
+ 2.1148 4 3 ack 40 ------- 1 4.0 0.0 13 32
- 2.1148 4 3 ack 40 ------- 1 4.0 0.0 13 32
r 2.1152 4 3 ack 40 ------- 1 4.0 0.0 10 29
+ 2.1152 3 2 ack 40 ------- 1 4.0 0.0 10 29
- 2.1152 3 2 ack 40 ------- 1 4.0 0.0 10 29
r 2.1292 3 2 ack 40 ------- 1 4.0 0.0 9 28
+ 2.1292 2 0 ack 40 ------- 1 4.0 0.0 9 28
- 2.1292 2 0 ack 40 ------- 1 4.0 0.0 9 28
r 2.13144 3 4 tcp 1040 ------- 1 0.0 4.0 14 25
+ 2.13144 4 3 ack 40 ------- 1 4.0 0.0 14 33
- 2.13144 4 3 ack 40 ------- 1 4.0 0.0 14 33
r 2.13184 4 3 ack 40 ------- 1 4.0 0.0 11 30
+ 2.13184 3 2 ack 40 ------- 1 4.0 0.0 11 30
- 2.13184 3 2 ack 40 ------- 1 4.0 0.0 11 30
r 2.14584 3 2 ack 40 ------- 1 4.0 0.0 10 29
+ 2.14584 2 0 ack 40 ------- 1 4.0 0.0 10 29
- 2.14584 2 0 ack 40 ------- 1 4.0 0.0 10 29
r 2.14624 2 0 ack 40 ------- 1 4.0 0.0 7 26
+ 2.14624 0 2 tcp 1040 ------- 1 0.0 4.0 15 34
- 2.14624 0 2 tcp 1040 ------- 1 0.0 4.0 15 34
+ 2.14624 0 2 tcp 1040 ------- 1 0.0 4.0 16 35
r 2.14848 4 3 ack 40 ------- 1 4.0 0.0 12 31
+ 2.14848 3 2 ack 40 ------- 1 4.0 0.0 12 31
- 2.14848 3 2 ack 40 ------- 1 4.0 0.0 12 31
- 2.15456 0 2 tcp 1040 ------- 1 0.0 4.0 16 35
r 2.16248 3 2 ack 40 ------- 1 4.0 0.0 11 30
+ 2.16248 2 0 ack 40 ------- 1 4.0 0.0 11 30
- 2.16248 2 0 ack 40 ------- 1 4.0 0.0 11 30
r 2.16288 2 0 ack 40 ------- 1 4.0 0.0 8 27
+ 2.16288 0 2 tcp 1040 ------- 1 0.0 4.0 17 36
- 2.16288 0 2 tcp 1040 ------- 1 0.0 4.0 17 36
+ 2.16288 0 2 tcp 1040 ------- 1 0.0 4.0 18 37
r 2.16512 4 3 ack 40 ------- 1 4.0 0.0 13 32
+ 2.16512 3 2 ack 40 ------- 1 4.0 0.0 13 32
- 2.16512 3 2 ack 40 ------- 1 4.0 0.0 13 32
- 2.1712 0 2 tcp 1040 ------- 1 0.0 4.0 18 37
r 2.17912 3 2 ack 40 ------- 1 4.0 0.0 12 31
+ 2.17912 2 0 ack 40 ------- 1 4.0 0.0 12 31
- 2.17912 2 0 ack 40 ------- 1 4.0 0.0 12 31
r 2.17952 2 0 ack 40 ------- 1 4.0 0.0 9 28
+ 2.17952 0 2 tcp 1040 ------- 1 0.0 4.0 19 38
+ 2.17952 0 2 tcp 1040 ------- 1 0.0 4.0 20 39
- 2.17952 0 2 tcp 1040 ------- 1 0.0 4.0 19 38
r 2.18176 4 3 ack 40 ------- 1 4.0 0.0 14 33
+ 2.18176 3 2 ack 40 ------- 1 4.0 0.0 14 33
- 2.18176 3 2 ack 40 ------- 1 4.0 0.0 14 33
- 2.18784 0 2 tcp 1040 ------- 1 0.0 4.0 20 39
r 2.19576 3 2 ack 40 ------- 1 4.0 0.0 13 32
+ 2.19576 2 0 ack 40 ------- 1 4.0 0.0 13 32
- 2.19576 2 0 ack 40 ------- 1 4.0 0.0 13 32
r 2.19616 2 0 ack 40 ------- 1 4.0 0.0 10 29
+ 2.19616 0 2 tcp 1040 ------- 1 0.0 4.0 21 40
- 2.19616 0 2 tcp 1040 ------- 1 0.0 4.0 21 40
+ 2.19616 0 2 tcp 1040 ------- 1 0.0 4.0 22 41
- 2.20448 0 2 tcp 1040 ------- 1 0.0 4.0 22 41
r 2.20456 0 2 tcp 1040 ------- 1 0.0 4.0 15 34
+ 2.20456 2 3 tcp 1040 ------- 1 0.0 4.0 15 34
- 2.20456 2 3 tcp 1040 ------- 1 0.0 4.0 15 34
r 2.2124 3 2 ack 40 ------- 1 4.0 0.0 14 33
+ 2.2124 2 0 ack 40 ------- 1 4.0 0.0 14 33
- 2.2124 2 0 ack 40 ------- 1 4.0 0.0 14 33
r 2.2128 2 0 ack 40 ------- 1 4.0 0.0 11 30
+ 2.2128 0 2 tcp 1040 ------- 1 0.0 4.0 23 42
+ 2.2128 0 2 tcp 1040 ------- 1 0.0 4.0 24 43
- 2.2128 0 2 tcp 1040 ------- 1 0.0 4.0 23 42
r 2.21288 0 2 tcp 1040 ------- 1 0.0 4.0 16 35
+ 2.21288 2 3 tcp 1040 ------- 1 0.0 4.0 16 35
- 2.22112 0 2 tcp 1040 ------- 1 0.0 4.0 24 43
r 2.2212 0 2 tcp 1040 ------- 1 0.0 4.0 17 36
+ 2.2212 2 3 tcp 1040 ------- 1 0.0 4.0 17 36
- 2.2212 2 3 tcp 1040 ------- 1 0.0 4.0 16 35
r 2.22944 2 0 ack 40 ------- 1 4.0 0.0 12 31
+ 2.22944 0 2 tcp 1040 ------- 1 0.0 4.0 25 44
- 2.22944 0 2 tcp 1040 ------- 1 0.0 4.0 25 44
+ 2.22944 0 2 tcp 1040 ------- 1 0.0 4.0 26 45
r 2.22952 0 2 tcp 1040 ------- 1 0.0 4.0 18 37
+ 2.22952 2 3 tcp 1040 ------- 1 0.0 4.0 18 37
- 2.23776 0 2 tcp 1040 ------- 1 0.0 4.0 26 45
r 2.23784 0 2 tcp 1040 ------- 1 0.0 4.0 19 38
+ 2.23784 2 3 tcp 1040 ------- 1 0.0 4.0 19 38
- 2.23784 2 3 tcp 1040 ------- 1 0.0 4.0 17 36
r 2.24608 2 0 ack 40 ------- 1 4.0 0.0 13 32
+ 2.24608 0 2 tcp 1040 ------- 1 0.0 4.0 27 46
- 2.24608 0 2 tcp 1040 ------- 1 0.0 4.0 27 46
+ 2.24608 0 2 tcp 1040 ------- 1 0.0 4.0 28 47
r 2.24616 0 2 tcp 1040 ------- 1 0.0 4.0 20 39
+ 2.24616 2 3 tcp 1040 ------- 1 0.0 4.0 20 39
r 2.2512 2 3 tcp 1040 ------- 1 0.0 4.0 15 34
+ 2.2512 3 4 tcp 1040 ------- 1 0.0 4.0 15 34
- 2.2512 3 4 tcp 1040 ------- 1 0.0 4.0 15 34
- 2.2544 0 2 tcp 1040 ------- 1 0.0 4.0 28 47
r 2.25448 0 2 tcp 1040 ------- 1 0.0 4.0 21 40
+ 2.25448 2 3 tcp 1040 ------- 1 0.0 4.0 21 40
- 2.25448 2 3 tcp 1040 ------- 1 0.0 4.0 18 37
r 2.26272 2 0 ack 40 ------- 1 4.0 0.0 14 33
+ 2.26272 0 2 tcp 1040 ------- 1 0.0 4.0 29 48
- 2.26272 0 2 tcp 1040 ------- 1 0.0 4.0 29 48
+ 2.26272 0 2 tcp 1040 ------- 1 0.0 4.0 30 49
r 2.2628 0 2 tcp 1040 ------- 1 0.0 4.0 22 41
+ 2.2628 2 3 tcp 1040 ------- 1 0.0 4.0 22 41
r 2.26784 2 3 tcp 1040 ------- 1 0.0 4.0 16 35
+ 2.26784 3 4 tcp 1040 ------- 1 0.0 4.0 16 35
- 2.26784 3 4 tcp 1040 ------- 1 0.0 4.0 16 35
- 2.27104 0 2 tcp 1040 ------- 1 0.0 4.0 30 49
r 2.27112 0 2 tcp 1040 ------- 1 0.0 4.0 23 42
+ 2.27112 2 3 tcp 1040 ------- 1 0.0 4.0 23 42
- 2.27112 2 3 tcp 1040 ------- 1 0.0 4.0 19 38
r 2.27944 0 2 tcp 1040 ------- 1 0.0 4.0 24 43
+ 2.27944 2 3 tcp 1040 ------- 1 0.0 4.0 24 43
r 2.28448 2 3 tcp 1040 ------- 1 0.0 4.0 17 36
+ 2.28448 3 4 tcp 1040 ------- 1 0.0 4.0 17 36
- 2.28448 3 4 tcp 1040 ------- 1 0.0 4.0 17 36
r 2.28776 0 2 tcp 1040 ------- 1 0.0 4.0 25 44
+ 2.28776 2 3 tcp 1040 ------- 1 0.0 4.0 25 44
- 2.28776 2 3 tcp 1040 ------- 1 0.0 4.0 20 39
r 2.29608 0 2 tcp 1040 ------- 1 0.0 4.0 26 45
+ 2.29608 2 3 tcp 1040 ------- 1 0.0 4.0 26 45
r 2.30112 2 3 tcp 1040 ------- 1 0.0 4.0 18 37
+ 2.30112 3 4 tcp 1040 ------- 1 0.0 4.0 18 37
- 2.30112 3 4 tcp 1040 ------- 1 0.0 4.0 18 37
r 2.3044 0 2 tcp 1040 ------- 1 0.0 4.0 27 46
+ 2.3044 2 3 tcp 1040 ------- 1 0.0 4.0 27 46
- 2.3044 2 3 tcp 1040 ------- 1 0.0 4.0 21 40
r 2.30952 3 4 tcp 1040 ------- 1 0.0 4.0 15 34
+ 2.30952 4 3 ack 40 ------- 1 4.0 0.0 15 50
- 2.30952 4 3 ack 40 ------- 1 4.0 0.0 15 50
r 2.31272 0 2 tcp 1040 ------- 1 0.0 4.0 28 47
+ 2.31272 2 3 tcp 1040 ------- 1 0.0 4.0 28 47
r 2.31776 2 3 tcp 1040 ------- 1 0.0 4.0 19 38
+ 2.31776 3 4 tcp 1040 ------- 1 0.0 4.0 19 38
- 2.31776 3 4 tcp 1040 ------- 1 0.0 4.0 19 38
r 2.32104 0 2 tcp 1040 ------- 1 0.0 4.0 29 48
+ 2.32104 2 3 tcp 1040 ------- 1 0.0 4.0 29 48
- 2.32104 2 3 tcp 1040 ------- 1 0.0 4.0 22 41
r 2.32616 3 4 tcp 1040 ------- 1 0.0 4.0 16 35
+ 2.32616 4 3 ack 40 ------- 1 4.0 0.0 16 51
- 2.32616 4 3 ack 40 ------- 1 4.0 0.0 16 51
r 2.32936 0 2 tcp 1040 ------- 1 0.0 4.0 30 49
+ 2.32936 2 3 tcp 1040 ------- 1 0.0 4.0 30 49
r 2.3344 2 3 tcp 1040 ------- 1 0.0 4.0 20 39
+ 2.3344 3 4 tcp 1040 ------- 1 0.0 4.0 20 39
- 2.3344 3 4 tcp 1040 ------- 1 0.0 4.0 20 39
- 2.33768 2 3 tcp 1040 ------- 1 0.0 4.0 23 42
r 2.3428 3 4 tcp 1040 ------- 1 0.0 4.0 17 36
+ 2.3428 4 3 ack 40 ------- 1 4.0 0.0 17 52
- 2.3428 4 3 ack 40 ------- 1 4.0 0.0 17 52
r 2.35104 2 3 tcp 1040 ------- 1 0.0 4.0 21 40
+ 2.35104 3 4 tcp 1040 ------- 1 0.0 4.0 21 40
- 2.35104 3 4 tcp 1040 ------- 1 0.0 4.0 21 40
- 2.35432 2 3 tcp 1040 ------- 1 0.0 4.0 24 43
r 2.35944 3 4 tcp 1040 ------- 1 0.0 4.0 18 37
+ 2.35944 4 3 ack 40 ------- 1 4.0 0.0 18 53
- 2.35944 4 3 ack 40 ------- 1 4.0 0.0 18 53
r 2.35984 4 3 ack 40 ------- 1 4.0 0.0 15 50
+ 2.35984 3 2 ack 40 ------- 1 4.0 0.0 15 50
- 2.35984 3 2 ack 40 ------- 1 4.0 0.0 15 50
r 2.36768 2 3 tcp 1040 ------- 1 0.0 4.0 22 41
+ 2.36768 3 4 tcp 1040 ------- 1 0.0 4.0 22 41
- 2.36768 3 4 tcp 1040 ------- 1 0.0 4.0 22 41
- 2.37096 2 3 tcp 1040 ------- 1 0.0 4.0 25 44
r 2.37608 3 4 tcp 1040 ------- 1 0.0 4.0 19 38
+ 2.37608 4 3 ack 40 ------- 1 4.0 0.0 19 54
- 2.37608 4 3 ack 40 ------- 1 4.0 0.0 19 54
r 2.37648 4 3 ack 40 ------- 1 4.0 0.0 16 51
+ 2.37648 3 2 ack 40 ------- 1 4.0 0.0 16 51
- 2.37648 3 2 ack 40 ------- 1 4.0 0.0 16 51
r 2.38432 2 3 tcp 1040 ------- 1 0.0 4.0 23 42
+ 2.38432 3 4 tcp 1040 ------- 1 0.0 4.0 23 42
- 2.38432 3 4 tcp 1040 ------- 1 0.0 4.0 23 42
- 2.3876 2 3 tcp 1040 ------- 1 0.0 4.0 26 45
r 2.39048 3 2 ack 40 ------- 1 4.0 0.0 15 50
+ 2.39048 2 0 ack 40 ------- 1 4.0 0.0 15 50
- 2.39048 2 0 ack 40 ------- 1 4.0 0.0 15 50
r 2.39272 3 4 tcp 1040 ------- 1 0.0 4.0 20 39
+ 2.39272 4 3 ack 40 ------- 1 4.0 0.0 20 55
- 2.39272 4 3 ack 40 ------- 1 4.0 0.0 20 55
r 2.39312 4 3 ack 40 ------- 1 4.0 0.0 17 52
+ 2.39312 3 2 ack 40 ------- 1 4.0 0.0 17 52
- 2.39312 3 2 ack 40 ------- 1 4.0 0.0 17 52
r 2.40096 2 3 tcp 1040 ------- 1 0.0 4.0 24 43
+ 2.40096 3 4 tcp 1040 ------- 1 0.0 4.0 24 43
- 2.40096 3 4 tcp 1040 ------- 1 0.0 4.0 24 43
- 2.40424 2 3 tcp 1040 ------- 1 0.0 4.0 27 46
r 2.40712 3 2 ack 40 ------- 1 4.0 0.0 16 51
+ 2.40712 2 0 ack 40 ------- 1 4.0 0.0 16 51
- 2.40712 2 0 ack 40 ------- 1 4.0 0.0 16 51
r 2.40936 3 4 tcp 1040 ------- 1 0.0 4.0 21 40
+ 2.40936 4 3 ack 40 ------- 1 4.0 0.0 21 56
- 2.40936 4 3 ack 40 ------- 1 4.0 0.0 21 56
r 2.40976 4 3 ack 40 ------- 1 4.0 0.0 18 53
+ 2.40976 3 2 ack 40 ------- 1 4.0 0.0 18 53
- 2.40976 3 2 ack 40 ------- 1 4.0 0.0 18 53
r 2.4176 2 3 tcp 1040 ------- 1 0.0 4.0 25 44
+ 2.4176 3 4 tcp 1040 ------- 1 0.0 4.0 25 44
- 2.4176 3 4 tcp 1040 ------- 1 0.0 4.0 25 44
- 2.42088 2 3 tcp 1040 ------- 1 0.0 4.0 28 47
r 2.42376 3 2 ack 40 ------- 1 4.0 0.0 17 52
+ 2.42376 2 0 ack 40 ------- 1 4.0 0.0 17 52
- 2.42376 2 0 ack 40 ------- 1 4.0 0.0 17 52
r 2.426 3 4 tcp 1040 ------- 1 0.0 4.0 22 41
+ 2.426 4 3 ack 40 ------- 1 4.0 0.0 22 57
- 2.426 4 3 ack 40 ------- 1 4.0 0.0 22 57
r 2.4264 4 3 ack 40 ------- 1 4.0 0.0 19 54
+ 2.4264 3 2 ack 40 ------- 1 4.0 0.0 19 54
- 2.4264 3 2 ack 40 ------- 1 4.0 0.0 19 54
r 2.43424 2 3 tcp 1040 ------- 1 0.0 4.0 26 45
+ 2.43424 3 4 tcp 1040 ------- 1 0.0 4.0 26 45
- 2.43424 3 4 tcp 1040 ------- 1 0.0 4.0 26 45
- 2.43752 2 3 tcp 1040 ------- 1 0.0 4.0 29 48
r 2.4404 3 2 ack 40 ------- 1 4.0 0.0 18 53
+ 2.4404 2 0 ack 40 ------- 1 4.0 0.0 18 53
- 2.4404 2 0 ack 40 ------- 1 4.0 0.0 18 53
r 2.4408 2 0 ack 40 ------- 1 4.0 0.0 15 50
+ 2.4408 0 2 tcp 1040 ------- 1 0.0 4.0 31 58
- 2.4408 0 2 tcp 1040 ------- 1 0.0 4.0 31 58
+ 2.4408 0 2 tcp 1040 ------- 1 0.0 4.0 32 59
r 2.44264 3 4 tcp 1040 ------- 1 0.0 4.0 23 42
+ 2.44264 4 3 ack 40 ------- 1 4.0 0.0 23 60
- 2.44264 4 3 ack 40 ------- 1 4.0 0.0 23 60
r 2.44304 4 3 ack 40 ------- 1 4.0 0.0 20 55
+ 2.44304 3 2 ack 40 ------- 1 4.0 0.0 20 55
- 2.44304 3 2 ack 40 ------- 1 4.0 0.0 20 55
- 2.44912 0 2 tcp 1040 ------- 1 0.0 4.0 32 59
r 2.45088 2 3 tcp 1040 ------- 1 0.0 4.0 27 46
+ 2.45088 3 4 tcp 1040 ------- 1 0.0 4.0 27 46
- 2.45088 3 4 tcp 1040 ------- 1 0.0 4.0 27 46
- 2.45416 2 3 tcp 1040 ------- 1 0.0 4.0 30 49
r 2.45704 3 2 ack 40 ------- 1 4.0 0.0 19 54
+ 2.45704 2 0 ack 40 ------- 1 4.0 0.0 19 54
- 2.45704 2 0 ack 40 ------- 1 4.0 0.0 19 54
r 2.45744 2 0 ack 40 ------- 1 4.0 0.0 16 51
+ 2.45744 0 2 tcp 1040 ------- 1 0.0 4.0 33 61
- 2.45744 0 2 tcp 1040 ------- 1 0.0 4.0 33 61
+ 2.45744 0 2 tcp 1040 ------- 1 0.0 4.0 34 62
r 2.45928 3 4 tcp 1040 ------- 1 0.0 4.0 24 43
+ 2.45928 4 3 ack 40 ------- 1 4.0 0.0 24 63
- 2.45928 4 3 ack 40 ------- 1 4.0 0.0 24 63
r 2.45968 4 3 ack 40 ------- 1 4.0 0.0 21 56
+ 2.45968 3 2 ack 40 ------- 1 4.0 0.0 21 56
- 2.45968 3 2 ack 40 ------- 1 4.0 0.0 21 56
- 2.46576 0 2 tcp 1040 ------- 1 0.0 4.0 34 62
r 2.46752 2 3 tcp 1040 ------- 1 0.0 4.0 28 47
+ 2.46752 3 4 tcp 1040 ------- 1 0.0 4.0 28 47
- 2.46752 3 4 tcp 1040 ------- 1 0.0 4.0 28 47
r 2.47368 3 2 ack 40 ------- 1 4.0 0.0 20 55
+ 2.47368 2 0 ack 40 ------- 1 4.0 0.0 20 55
- 2.47368 2 0 ack 40 ------- 1 4.0 0.0 20 55
r 2.47408 2 0 ack 40 ------- 1 4.0 0.0 17 52
+ 2.47408 0 2 tcp 1040 ------- 1 0.0 4.0 35 64
- 2.47408 0 2 tcp 1040 ------- 1 0.0 4.0 35 64
+ 2.47408 0 2 tcp 1040 ------- 1 0.0 4.0 36 65
r 2.47592 3 4 tcp 1040 ------- 1 0.0 4.0 25 44
+ 2.47592 4 3 ack 40 ------- 1 4.0 0.0 25 66
- 2.47592 4 3 ack 40 ------- 1 4.0 0.0 25 66
r 2.47632 4 3 ack 40 ------- 1 4.0 0.0 22 57
+ 2.47632 3 2 ack 40 ------- 1 4.0 0.0 22 57
- 2.47632 3 2 ack 40 ------- 1 4.0 0.0 22 57
- 2.4824 0 2 tcp 1040 ------- 1 0.0 4.0 36 65
r 2.48416 2 3 tcp 1040 ------- 1 0.0 4.0 29 48
+ 2.48416 3 4 tcp 1040 ------- 1 0.0 4.0 29 48
- 2.48416 3 4 tcp 1040 ------- 1 0.0 4.0 29 48
r 2.49032 3 2 ack 40 ------- 1 4.0 0.0 21 56
+ 2.49032 2 0 ack 40 ------- 1 4.0 0.0 21 56
- 2.49032 2 0 ack 40 ------- 1 4.0 0.0 21 56
r 2.49072 2 0 ack 40 ------- 1 4.0 0.0 18 53
+ 2.49072 0 2 tcp 1040 ------- 1 0.0 4.0 37 67
- 2.49072 0 2 tcp 1040 ------- 1 0.0 4.0 37 67
+ 2.49072 0 2 tcp 1040 ------- 1 0.0 4.0 38 68
r 2.49256 3 4 tcp 1040 ------- 1 0.0 4.0 26 45
+ 2.49256 4 3 ack 40 ------- 1 4.0 0.0 26 69
- 2.49256 4 3 ack 40 ------- 1 4.0 0.0 26 69
r 2.49296 4 3 ack 40 ------- 1 4.0 0.0 23 60
+ 2.49296 3 2 ack 40 ------- 1 4.0 0.0 23 60
- 2.49296 3 2 ack 40 ------- 1 4.0 0.0 23 60
- 2.49904 0 2 tcp 1040 ------- 1 0.0 4.0 38 68
r 2.49912 0 2 tcp 1040 ------- 1 0.0 4.0 31 58
+ 2.49912 2 3 tcp 1040 ------- 1 0.0 4.0 31 58
- 2.49912 2 3 tcp 1040 ------- 1 0.0 4.0 31 58
r 2.5008 2 3 tcp 1040 ------- 1 0.0 4.0 30 49
+ 2.5008 3 4 tcp 1040 ------- 1 0.0 4.0 30 49
- 2.5008 3 4 tcp 1040 ------- 1 0.0 4.0 30 49
r 2.50696 3 2 ack 40 ------- 1 4.0 0.0 22 57
+ 2.50696 2 0 ack 40 ------- 1 4.0 0.0 22 57
- 2.50696 2 0 ack 40 ------- 1 4.0 0.0 22 57
r 2.50736 2 0 ack 40 ------- 1 4.0 0.0 19 54
+ 2.50736 0 2 tcp 1040 ------- 1 0.0 4.0 39 70
- 2.50736 0 2 tcp 1040 ------- 1 0.0 4.0 39 70
+ 2.50736 0 2 tcp 1040 ------- 1 0.0 4.0 40 71
r 2.50744 0 2 tcp 1040 ------- 1 0.0 4.0 32 59
+ 2.50744 2 3 tcp 1040 ------- 1 0.0 4.0 32 59
r 2.5092 3 4 tcp 1040 ------- 1 0.0 4.0 27 46
+ 2.5092 4 3 ack 40 ------- 1 4.0 0.0 27 72
- 2.5092 4 3 ack 40 ------- 1 4.0 0.0 27 72
r 2.5096 4 3 ack 40 ------- 1 4.0 0.0 24 63
+ 2.5096 3 2 ack 40 ------- 1 4.0 0.0 24 63
- 2.5096 3 2 ack 40 ------- 1 4.0 0.0 24 63
- 2.51568 0 2 tcp 1040 ------- 1 0.0 4.0 40 71
r 2.51576 0 2 tcp 1040 ------- 1 0.0 4.0 33 61
+ 2.51576 2 3 tcp 1040 ------- 1 0.0 4.0 33 61
- 2.51576 2 3 tcp 1040 ------- 1 0.0 4.0 32 59
r 2.5236 3 2 ack 40 ------- 1 4.0 0.0 23 60
+ 2.5236 2 0 ack 40 ------- 1 4.0 0.0 23 60
- 2.5236 2 0 ack 40 ------- 1 4.0 0.0 23 60
r 2.524 2 0 ack 40 ------- 1 4.0 0.0 20 55
+ 2.524 0 2 tcp 1040 ------- 1 0.0 4.0 41 73
- 2.524 0 2 tcp 1040 ------- 1 0.0 4.0 41 73
+ 2.524 0 2 tcp 1040 ------- 1 0.0 4.0 42 74
r 2.52408 0 2 tcp 1040 ------- 1 0.0 4.0 34 62
+ 2.52408 2 3 tcp 1040 ------- 1 0.0 4.0 34 62
r 2.52584 3 4 tcp 1040 ------- 1 0.0 4.0 28 47
+ 2.52584 4 3 ack 40 ------- 1 4.0 0.0 28 75
- 2.52584 4 3 ack 40 ------- 1 4.0 0.0 28 75
r 2.52624 4 3 ack 40 ------- 1 4.0 0.0 25 66
+ 2.52624 3 2 ack 40 ------- 1 4.0 0.0 25 66
- 2.52624 3 2 ack 40 ------- 1 4.0 0.0 25 66
- 2.53232 0 2 tcp 1040 ------- 1 0.0 4.0 42 74
r 2.5324 0 2 tcp 1040 ------- 1 0.0 4.0 35 64
+ 2.5324 2 3 tcp 1040 ------- 1 0.0 4.0 35 64
- 2.5324 2 3 tcp 1040 ------- 1 0.0 4.0 33 61
+ 2.536 1 2 cbr 1000 ------- 2 1.0 5.0 4 76
- 2.536 1 2 cbr 1000 ------- 2 1.0 5.0 4 76
+ 2.536 1 2 cbr 460 ------- 2 1.0 5.0 5 77
r 2.54024 3 2 ack 40 ------- 1 4.0 0.0 24 63
+ 2.54024 2 0 ack 40 ------- 1 4.0 0.0 24 63
- 2.54024 2 0 ack 40 ------- 1 4.0 0.0 24 63
r 2.54064 2 0 ack 40 ------- 1 4.0 0.0 21 56
+ 2.54064 0 2 tcp 1040 ------- 1 0.0 4.0 43 78
- 2.54064 0 2 tcp 1040 ------- 1 0.0 4.0 43 78
+ 2.54064 0 2 tcp 1040 ------- 1 0.0 4.0 44 79
r 2.54072 0 2 tcp 1040 ------- 1 0.0 4.0 36 65
+ 2.54072 2 3 tcp 1040 ------- 1 0.0 4.0 36 65
r 2.54248 3 4 tcp 1040 ------- 1 0.0 4.0 29 48
+ 2.54248 4 3 ack 40 ------- 1 4.0 0.0 29 80
- 2.54248 4 3 ack 40 ------- 1 4.0 0.0 29 80
r 2.54288 4 3 ack 40 ------- 1 4.0 0.0 26 69
+ 2.54288 3 2 ack 40 ------- 1 4.0 0.0 26 69
- 2.54288 3 2 ack 40 ------- 1 4.0 0.0 26 69
- 2.544 1 2 cbr 460 ------- 2 1.0 5.0 5 77
r 2.54576 2 3 tcp 1040 ------- 1 0.0 4.0 31 58
+ 2.54576 3 4 tcp 1040 ------- 1 0.0 4.0 31 58
- 2.54576 3 4 tcp 1040 ------- 1 0.0 4.0 31 58
- 2.54896 0 2 tcp 1040 ------- 1 0.0 4.0 44 79
r 2.54904 0 2 tcp 1040 ------- 1 0.0 4.0 37 67
+ 2.54904 2 3 tcp 1040 ------- 1 0.0 4.0 37 67
- 2.54904 2 3 tcp 1040 ------- 1 0.0 4.0 34 62
r 2.55688 3 2 ack 40 ------- 1 4.0 0.0 25 66
+ 2.55688 2 0 ack 40 ------- 1 4.0 0.0 25 66
- 2.55688 2 0 ack 40 ------- 1 4.0 0.0 25 66
r 2.55728 2 0 ack 40 ------- 1 4.0 0.0 22 57
+ 2.55728 0 2 tcp 1040 ------- 1 0.0 4.0 45 81
- 2.55728 0 2 tcp 1040 ------- 1 0.0 4.0 45 81
+ 2.55728 0 2 tcp 1040 ------- 1 0.0 4.0 46 82
r 2.55736 0 2 tcp 1040 ------- 1 0.0 4.0 38 68
+ 2.55736 2 3 tcp 1040 ------- 1 0.0 4.0 38 68
r 2.55912 3 4 tcp 1040 ------- 1 0.0 4.0 30 49
+ 2.55912 4 3 ack 40 ------- 1 4.0 0.0 30 83
- 2.55912 4 3 ack 40 ------- 1 4.0 0.0 30 83
r 2.55952 4 3 ack 40 ------- 1 4.0 0.0 27 72
+ 2.55952 3 2 ack 40 ------- 1 4.0 0.0 27 72
- 2.55952 3 2 ack 40 ------- 1 4.0 0.0 27 72
r 2.5624 2 3 tcp 1040 ------- 1 0.0 4.0 32 59
+ 2.5624 3 4 tcp 1040 ------- 1 0.0 4.0 32 59
- 2.5624 3 4 tcp 1040 ------- 1 0.0 4.0 32 59
- 2.5656 0 2 tcp 1040 ------- 1 0.0 4.0 46 82
r 2.56568 0 2 tcp 1040 ------- 1 0.0 4.0 39 70
+ 2.56568 2 3 tcp 1040 ------- 1 0.0 4.0 39 70
- 2.56568 2 3 tcp 1040 ------- 1 0.0 4.0 35 64
r 2.57352 3 2 ack 40 ------- 1 4.0 0.0 26 69
+ 2.57352 2 0 ack 40 ------- 1 4.0 0.0 26 69
- 2.57352 2 0 ack 40 ------- 1 4.0 0.0 26 69
r 2.57392 2 0 ack 40 ------- 1 4.0 0.0 23 60
+ 2.57392 0 2 tcp 1040 ------- 1 0.0 4.0 47 84
- 2.57392 0 2 tcp 1040 ------- 1 0.0 4.0 47 84
+ 2.57392 0 2 tcp 1040 ------- 1 0.0 4.0 48 85
r 2.574 0 2 tcp 1040 ------- 1 0.0 4.0 40 71
+ 2.574 2 3 tcp 1040 ------- 1 0.0 4.0 40 71
r 2.57616 4 3 ack 40 ------- 1 4.0 0.0 28 75
+ 2.57616 3 2 ack 40 ------- 1 4.0 0.0 28 75
- 2.57616 3 2 ack 40 ------- 1 4.0 0.0 28 75
r 2.57904 2 3 tcp 1040 ------- 1 0.0 4.0 33 61
+ 2.57904 3 4 tcp 1040 ------- 1 0.0 4.0 33 61
- 2.57904 3 4 tcp 1040 ------- 1 0.0 4.0 33 61
- 2.58224 0 2 tcp 1040 ------- 1 0.0 4.0 48 85
r 2.58232 0 2 tcp 1040 ------- 1 0.0 4.0 41 73
+ 2.58232 2 3 tcp 1040 ------- 1 0.0 4.0 41 73
- 2.58232 2 3 tcp 1040 ------- 1 0.0 4.0 36 65
r 2.59016 3 2 ack 40 ------- 1 4.0 0.0 27 72
+ 2.59016 2 0 ack 40 ------- 1 4.0 0.0 27 72
- 2.59016 2 0 ack 40 ------- 1 4.0 0.0 27 72
r 2.59056 2 0 ack 40 ------- 1 4.0 0.0 24 63
+ 2.59056 0 2 tcp 1040 ------- 1 0.0 4.0 49 86
- 2.59056 0 2 tcp 1040 ------- 1 0.0 4.0 49 86
+ 2.59056 0 2 tcp 1040 ------- 1 0.0 4.0 50 87
r 2.59064 0 2 tcp 1040 ------- 1 0.0 4.0 42 74
+ 2.59064 2 3 tcp 1040 ------- 1 0.0 4.0 42 74
r 2.5928 4 3 ack 40 ------- 1 4.0 0.0 29 80
+ 2.5928 3 2 ack 40 ------- 1 4.0 0.0 29 80
- 2.5928 3 2 ack 40 ------- 1 4.0 0.0 29 80
r 2.594 1 2 cbr 1000 ------- 2 1.0 5.0 4 76
+ 2.594 2 3 cbr 1000 ------- 2 1.0 5.0 4 76
r 2.59568 2 3 tcp 1040 ------- 1 0.0 4.0 34 62